49290
Atoms. Timestep: 6001414
1 118.685 6.96975 33.5207
1 345.998 45.9216 5.61652
1 395.878 47.9049 27.3128
1 135.888 22.5088 12.3773
1 71.0321 29.4015 11.2067
1 65.5443 29.6542 26.4958
1 109.266 26.9073 8.87232
1 39.5653 44.363 3.83334
1 284.955 11.4679 0.34329
1 369.547 28.1052 44.5924
1 96.0749 7.92013 28.567
1 396.782 8.9213 32.2933
1 218.866 23.7448 25.426
1 314.927 18.7884 12.0086
1 366.623 26.8982 3.32871
1 287.187 1.79827 17.3649
1 96.3273 2.93872 34.4747
1 60.4353 9.8081 1.92266
1 355.643 24.8186 5.98373
1 133.394 10.9977 0.437654
1 148.321 23.5168 27.0948
1 203.647 24.3446 20.7937
1 280.953 35.0745 42.0566
1 311.579 45.7798 15.3412
1 55.9903 35.8143 34.1629
1 30.1685 48.5563 27.6571
1 348.102 24.2097 26.2272
1 105.879 12.1689 6.39216
1 305.177 29.2181 33.726
1 153.233 27.4468 48.5098
1 7.70361 25.4893 1.70334
1 176.896 15.8808 24.9617
1 86.5724 23.9453 43.8132
1 169.651 0.106542 27.5636
1 106.704 7.25672 48.0008
1 221.583 26.4355 45.9349
1 14.6567 13.3627 39.7832
1 174.481 25.9968 49.4765
1 162.187 7.24486 13.8274
1 124.247 32.7742 13.4677
1 336.921 7.57844 11.3023
1 113.525 42.2983 16.2413
1 328.202 2.85737 19.2893
1 197.086 19.4201 50.0147
1 10.9144 41.1437 1.42069
1 81.4869 10.282 35.2246
1 49.9911 33.6793 31.91
1 108.387 8.71212 16.6747
1 31.4549 9.70066 24.7273
1 330.541 33.357 22.8063
1 361.838 9.91635 30.8574
1 51.3074 6.11961 28.2653
1 28.2952 35.3257 46.4735
1 2.10663 34.6117 42.2245
1 83.7193 22.0558 15.3235
1 29.5855 16.7005 42.039
1 140.032 47.8137 9.10894
1 401.807 11.4643 31.054
1 83.4762 45.4046 22.9432
1 176.992 9.75116 47.1435
1 119.998 0.777822 7.99529
1 338.442 6.73628 12.9613
1 48.2505 21.5702 18.8867
1 207.16 46.5453 7.4825
1 26.5628 26.1984 12.9718
1 90.3701 22.552 2.98849
1 181.709 19.8612 27.9944
1 213.847 4.37192 46.8275
1 164.468 3.29816 19.0982
1 119.716 9.83223 11.3994
1 125.66 44.5752 34.7808
1 75.5219 6.03292 31.7107
1 18.2365 18.8341 3.54725
1 120.401 11.0175 44.3113
1 363.703 33.3163 3.73665
1 22.8211 18.2355 28.2796
1 176.12 1.97803 26.5568
1 267.499 24.8439 2.30294
1 148.506 17.8241 8.92387
1 294.9 36.5376 27.2059
1 170.863 20.55 23.4175
1 100.766 25.5467 39.6684
1 332.281 34.1177 16.612
1 85.8462 30.4486 20.7242
1 72.413 0.278526 7.79563
1 355.205 35.0563 18.0937
1 286.301 14.6338 33.1662
1 53.8054 37.079 12.8527
1 160.614 23.2224 9.16411
1 365.993 23.5798 14.2199
1 391.617 49.1254 27.0158
1 166.189 9.46036 36.9447
1 0.594089 38.7835 32.2812
1 111.445 39.0865 12.3648
1 355.138 8.54931 32.5599
1 137.128 43.1685 18.355
1 226.67 47.9786 22.5548
1 265.593 34.0219 45.6076
1 249.362 42.7682 16.0084
1 88.1011 48.6732 48.9481
1 87.5525 2.93286 32.8988
1 174.897 41.8291 8.66376
1 288.843 7.72407 23.7533
1 313.177 25.4354 10.7477
1 160.026 43.061 32.9587
1 75.091 35.1697 36.4573
1 298.615 38.6166 8.20645
1 57.0982 11.4508 30.4973
1 232.929 37.7074 22.4811
1 32.9206 29.8879 28.0125
1 124.021 37.602 25.3092
1 387.234 24.1846 37.9575
1 200.056 13.8819 12.0869
1 280.721 30.8593 44.6434
1 157.733 -0.170273 40.9575
1 373.986 43.9977 33.662
1 281.717 30.5143 40.7037
1 300.169 18.8907 38.5668
1 366.253 43.2647 33.7927
1 31.0662 42.2819 41.2412
1 48.3821 14.118 3.10057
1 54.7694 29.8088 37.9531
1 369.407 9.49348 5.16932
1 57.9375 18.6853 10.7252
1 262.533 36.3889 33.0651
1 9.99145 34.0998 10.0353
1 73.4871 33.7717 16.4729
1 121.599 9.85311 14.7232
1 253.417 37.3525 37.4668
1 189.417 37.2582 36.9092
1 342.781 11.2611 38.0415
1 195.447 35.8098 38.09
1 289.222 40.1698 33.927
1 254.652 31.3515 17.6683
1 39.0133 42.9065 27.3695
1 273.376 10.7555 30.5097
1 149.106 42.9912 25.2149
1 175.641 42.3809 22.6474
1 377.73 12.7813 26.1959
1 58.9311 26.4398 2.69609
1 14.4573 1.61499 1.19218
1 114.815 2.63605 9.20904
1 22.8413 25.5118 36.8081
1 59.1869 40.3901 0.600918
1 145.412 24.7584 37.251
1 349.861 32.2919 36.6038
1 27.0655 43.8078 2.59264
1 383.754 24.3442 36.4363
1 78.3541 8.35923 12.3677
1 182.58 36.7891 35.0773
1 374.67 49.5491 24.0222
1 279.507 33.1106 23.6182
1 175.227 1.31765 50.1216
1 261.784 37.0327 16.9822
1 273.191 49.3832 46.0324
1 313.068 32.0995 11.3528
1 134.176 10.9803 43.646
1 55.091 15.3276 38.2577
1 88.4521 48.1087 10.2624
1 375.522 48.2639 35.1994
1 253.958 50.0043 42.5992
1 308.059 28.955 12.5241
1 15.5416 49.063 40.307
1 34.8138 15.3941 32.2059
1 4.5078 45.9688 5.21928
1 239.895 41.6923 15.5596
1 150.586 12.5379 17.2627
1 349.743 10.4177 25.0566
1 209.167 33.4789 18.3952
1 350.265 26.3651 46.6988
1 73.5682 12.5038 25.8315
1 309.089 2.64483 42.9013
1 81.4628 14.2386 28.4594
1 240.962 19.5685 36.2878
1 401.224 2.61431 24.5063
1 191.664 42.7667 15.616
1 106.888 37.281 30.9789
1 236.27 30.4362 29.5218
1 217.665 43.6785 47.3041
1 378.736 20.2538 35.5564
1 15.8491 7.50087 26.8023
1 62.4252 29.0433 10.1943
1 84.4714 26.4034 32.7982
1 31.8145 23.2106 28.8216
1 98.9914 47.078 33.5217
1 217.2 49.0201 12.7212
1 307.141 32.8863 4.69313
1 59.6262 6.97662 41.4789
1 145.32 46.4659 38.5462
1 85.7069 47.9978 21.1917
1 13.5184 49.7421 8.14659
1 260.928 37.6072 0.840691
1 255.707 40.2392 9.58859
1 20.0079 17.0193 33.0698
1 225.523 12.5069 26.5856
1 264.092 44.6712 7.19591
1 375.419 3.05167 10.3471
1 156.315 28.1584 1.14051
1 344.501 22.697 13.9966
1 123.092 46.9015 37.3906
1 302.2 38.8343 45.5437
1 380.416 3.62988 10.1355
1 359.281 42.4328 22.5718
1 347.009 9.62345 22.6485
1 91.2008 22.2912 34.6529
1 95.1687 24.4423 8.87423
1 217.585 11.9031 15.9141
1 398.82 32.3078 37.3818
1 203.425 0.366645 0.942885
1 298.444 1.57943 49.0572
1 291.603 2.79699 40.1966
1 302.407 38.0279 23.262
1 236.591 1.00082 0.938914
1 267.395 13.5051 33.4005
1 302.586 38.248 48.0306
1 87.6834 30.0237 9.22201
1 146.95 39.4475 0.989101
1 391.634 46.1036 4.65719
1 249.174 38.3533 14.7883
1 245.957 42.8913 29.588
1 115.192 49.4257 43.6326
1 237.982 10.2658 17.8148
1 128.96 18.1554 36.7993
1 190.858 30.2968 1.68399
1 119.007 6.0313 18.3207
1 77.083 1.97003 16.5746
1 138.55 40.5692 31.0551
1 173.662 37.0669 0.925577
1 341.982 6.23017 0.718914
1 85.6801 44.4657 31.0186
1 314.009 18.6207 9.89279
1 376.751 32.6409 35.5714
1 198.55 8.32163 36.055
1 221.322 24.3554 0.934756
1 92.2094 4.70003 46.8593
1 387.292 8.71458 21.972
1 349.755 7.02157 22.794
1 354.142 22.7313 46.9217
1 214.177 1.27524 32.4506
1 98.2247 4.84923 31.9259
1 384.908 9.97243 27.3289
1 108.369 32.4401 26.2344
1 373.763 1.75943 14.1733
1 121.145 13.0174 43.1988
1 397.168 36.6512 40.9144
1 284.66 18.4912 10.0607
1 291.106 6.09114 19.1426
1 230.302 48.3065 21.0736
1 159.88 5.75647 9.90806
1 236.507 8.957 42.5753
1 238.477 28.7185 33.3663
1 356.383 20.5641 32.0063
1 71.4419 6.59324 38.2446
1 366.443 18.4025 42.6954
1 375.891 21.5445 30.4904
1 335.95 13.7153 42.1208
1 248.122 22.5487 45.1971
1 144.569 29.9783 1.80414
1 220.325 17.6799 27.604
1 275.293 0.915572 3.84564
1 153.699 41.198 44.7458
1 259.707 37.904 39.5731
1 69.2259 2.4134 2.29946
1 2.75472 16.5046 31.7956
1 295.719 32.5078 31.1679
1 244.597 19.4014 38.9974
1 352.99 20.2638 13.5891
1 323.922 43.668 32.1225
1 345.757 42.3005 3.6324
1 204.797 41.5756 20.4167
1 69.8589 4.04047 5.45987
1 314.539 46.9936 23.9919
1 27.0889 12.015 35.2386
1 224.263 9.49015 36.5913
1 371.827 21.6594 47.5055
1 219.563 23.0506 8.98021
1 62.7542 26.2799 3.78029
1 282.375 2.70488 9.99669
1 139.735 19.6783 39.0634
1 149.735 0.362626 4.53155
1 298.86 49.2975 26.5084
1 282.898 27.1826 7.05379
1 1.84444 33.7264 5.26216
1 212.59 26.6152 47.6554
1 257.345 20.9447 41.0839
1 45.4421 24.6755 47.3296
1 210.568 20.9601 42.933
1 84.5644 20.4638 20.9997
1 354.73 40.019 49.8675
1 351.206 32.6542 19.0595
1 13.0814 3.24734 4.40384
1 251.37 30.078 28.9903
1 371.704 49.3377 43.263
1 18.1017 40.5414 17.949
1 373.918 15.3461 18.0927
1 161.746 9.01547 3.55476
1 48.3188 7.29744 37.4285
1 12.3827 27.5273 42.8622
1 337.277 27.6106 38.8891
1 383.624 7.47027 22.3941
1 321.525 17.3892 49.084
1 18.6008 32.9404 27.0995
1 167.756 22.6444 24.4852
1 348.686 26.5537 7.47797
1 303.405 49.7543 26.5174
1 331.822 13.9874 24.6929
1 13.685 17.9817 46.3575
1 24.5752 2.76543 22.5516
1 17.0984 5.59607 10.4739
1 358.191 38.215 43.9727
1 217.78 50.038 17.6024
1 153.572 34.2836 12.1968
1 306.431 2.94184 33.4604
1 271.936 3.3677 47.2292
1 156.474 37.3581 37.8247
1 360.062 16.7627 38.8423
1 401.72 48.3604 3.02342
1 185.381 39.9937 15.7565
1 285.871 25.0613 6.72792
1 331.787 49.8295 35.7372
1 240.73 33.7461 39.6048
1 397.224 38.8827 5.92977
1 32.0732 34.2458 35.0574
1 78.215 40.5179 18.109
1 98.4965 12.9644 20.0584
1 365.396 26.0421 6.87041
1 95.6171 0.276647 0.668795
1 190.04 27.1585 10.4165
1 172.591 34.7368 42.7106
1 8.94281 30.639 8.04314
1 155.67 1.00933 25.9298
1 17.3511 36.3913 18.3576
1 101.989 42.9233 2.16332
1 264.114 27.0002 16.3932
1 153.967 25.4816 5.72105
1 360.662 10.7407 8.52236
1 335.938 20.9837 37.5635
1 244.088 38.168 16.2181
1 336.4 19.5337 22.9772
1 94.896 11.6799 18.927
1 296.171 7.67416 3.99478
1 278.746 6.8249 14.8873
1 99.688 24.7181 18.2508
1 74.5046 33.5648 0.467404
1 290.652 6.31792 7.57016
1 319.531 11.0093 45.1492
1 222.933 31.2217 19.183
1 44.5944 42.7923 7.98647
1 65.0725 33.6516 39.2437
1 205.763 36.6095 36.8434
1 372.445 32.8827 42.4762
1 323.893 37.005 48.3354
1 198.45 16.2112 32.7232
1 270.214 6.13923 31.1581
1 136.5 11.8173 43.9865
1 206.979 13.1038 17.8627
1 293.254 8.81363 20.3783
1 362.805 13.5273 10.5743
1 121.268 13.9405 32.3787
1 261.272 11.2905 13.303
1 374.434 28.6743 14.2485
1 396.274 21.3804 1.6155
1 113.287 10.5492 10.6838
1 244.877 43.7978 16.2323
1 168.855 19.5282 32.6004
1 288.389 35.9407 10.5603
1 150.158 10.705 15.87
1 352.359 8.12533 4.69719
1 288.667 23.1686 40.7834
1 299.113 22.611 39.8408
1 398.975 46.4684 26.6994
1 135.942 29.2545 18.9819
1 145.212 47.4402 1.0978
1 121.75 -0.0446001 48.2725
1 135.394 47.6165 9.37365
1 306.319 50.1576 42.2001
1 0.719043 9.68352 8.61036
1 331.596 22.9004 32.0997
1 64.8494 14.4151 37.4515
1 344.926 6.32421 35.5293
1 353.373 37.3203 39.5339
1 84.1177 36.7766 42.6725
1 146.889 33.0163 1.29496
1 139.653 29.3313 12.3482
1 227.305 43.7533 37.3203
1 296.386 15.0333 35.775
1 385.601 15.6722 7.33903
1 88.1419 45.5737 13.0619
1 293.536 31.6763 31.8993
1 295.101 27.2152 32.8531
1 258.927 43.9683 47.6321
1 370.617 41.4981 24.9974
1 125.117 11.1408 19.2799
1 360.099 49.9318 11.6582
1 371.501 43.5382 4.51383
1 354.283 20.3025 35.0463
1 338.082 28.0018 49.7887
1 253.556 30.9205 29.561
1 223.671 6.4403 40.1928
1 129.863 11.4044 49.8307
1 133.232 42.1744 14.5278
1 103.714 23.559 41.4366
1 376.459 9.13619 30.8424
1 65.2027 43.7956 33.7528
1 227.803 30.5097 24.9073
1 158.428 23.8135 15.9367
1 160.882 44.4463 29.6506
1 102.874 35.0017 14.9975
1 347.108 13.8195 12.5574
1 79.2691 21.1504 45.0853
1 360.786 22.1725 22.4741
1 337.956 9.01524 1.05737
1 47.6653 28.3025 22.9482
1 133.22 40.9151 16.4007
1 377.406 47.411 5.37147
1 150.968 24.9558 32.1694
1 208.444 4.23758 33.193
1 224.467 45.858 3.28094
1 338.125 28.6454 42.3849
1 257.454 18.3724 6.6281
1 216.196 24.3717 7.12141
1 152.985 34.6142 19.9894
1 13.0138 34.0107 3.5906
1 233 0.0283427 15.3021
1 319.167 6.13101 37.8219
1 207.315 19.6081 44.9459
1 175.3 8.51226 18.2236
1 53.5453 7.37438 46.029
1 158.81 48.099 41.0338
1 248.119 1.36178 0.0644624
1 208.748 5.66272 4.01575
1 229.958 47.6229 28.6388
1 90.7312 43.9866 15.9363
1 219.65 4.81182 11.3902
1 284.859 14.6535 26.5746
1 351.179 11.9994 38.1174
1 340.161 46.0086 41.5085
1 78.6073 39.5116 36.1484
1 230.481 34.8189 23.6683
1 301.73 24.7921 13.1523
1 55.257 1.29573 28.056
1 340.918 5.63278 43.758
1 385.241 35.0557 4.04319
1 279.35 27.0997 17.7234
1 188.05 49.8104 12.3693
1 199.048 37.1592 34.3396
1 314.154 2.13765 42.8268
1 268.489 26.1814 28.8621
1 359.301 41.2105 11.9177
1 96.0365 38.4446 37.2377
1 16.8158 42.4963 3.42071
1 164.249 34.7683 8.96837
1 284.894 37.0096 42.7566
1 118.946 27.6234 43.0883
1 273.061 23.2357 6.78628
1 82.8192 31.5562 9.17439
1 388.957 12.5301 0.714063
1 180.474 14.6008 21.5478
1 273.638 9.48939 3.91416
1 182.933 7.0929 21.281
1 353.164 21.2078 0.208902
1 22.8209 1.56285 10.9308
1 230.797 46.6976 0.820222
1 42.0169 20.0577 27.4543
1 116.815 4.76874 21.3929
1 377.002 31.1212 39.3689
1 193.627 28.9921 47.4052
1 239.642 2.97689 5.34195
1 23.8437 28.1088 20.8427
1 209.048 47.1767 11.3897
1 326.016 19.6405 18.1326
1 217.038 14.466 7.46503
1 58.6795 1.30239 32.6667
1 359.551 47.1321 19.4135
1 378.677 21.5376 16.7435
1 4.62779 40.58 13.4635
1 60.0495 47.9564 32.5666
1 103.625 35.9831 26.6958
1 135.261 22.1479 15.959
1 243.182 36.1643 0.479432
1 3.56478 24.2201 32.3087
1 165.938 13.2674 36.8495
1 74.5792 41.8278 39.8423
1 33.0195 27.5533 4.29837
1 379.298 29.1323 16.4246
1 269.541 25.6955 38.864
1 195.217 39.1303 29.2291
1 192.846 4.48882 14.4665
1 237.705 46.6604 0.567736
1 364.212 43.5542 35.0365
1 263.229 25.7987 19.7984
1 218.31 39.0375 37.1404
1 132.769 6.0932 2.84015
1 1.3225 5.28058 36.8242
1 129.983 15.7671 49.7716
1 79.2384 32.0218 28.5186
1 356.662 0.836831 14.8915
1 286.194 9.64485 33.0548
1 52.8022 11.9406 29.129
1 263.958 0.455681 47.8656
1 96.3218 2.25653 27.6699
1 367.985 44.2572 5.68438
1 335.165 3.71193 21.2691
1 244.639 15.9408 46.3281
1 132.279 37.0941 44.6137
1 293.97 42.421 16.7437
1 99.6197 17.1087 49.5237
1 158.623 37.2543 32.3872
1 87.311 20.5489 14.4715
1 52.0554 3.15045 30.4358
1 291.75 33.7008 13.217
1 287.151 41.8375 28.8749
1 195.982 36.9848 22.2344
1 321.353 29.4094 34.6015
1 129.218 29.8819 34.3718
1 242.051 20.967 24.4106
1 386.315 46.9481 26.6231
1 210.739 31.8652 17.5998
1 177.353 44.4897 32.5146
1 392.919 48.5512 14.4494
1 100.526 31.7699 13.5192
1 299.342 47.9155 49.7112
1 31.7606 6.34069 10.5874
1 296.476 9.08295 45.6138
1 6.39421 7.1877 44.3343
1 114.363 10.1666 27.2969
1 116.76 45.9312 22.1163
1 169.19 7.7777 31.2707
1 251.14 35.6402 16.6242
1 108.419 34.1403 33.1805
1 360.68 42.6352 35.9716
1 165.466 18.4697 26.7699
1 10.698 35.9578 17.9399
1 100.556 28.7392 23.6876
1 134.671 17.8 40.7169
1 32.9792 23.6929 24.8971
1 -0.502771 35.005 29.9145
1 201.655 17.9869 10.2462
1 224.183 13.6495 15.5768
1 240.265 1.5828 37.0746
1 7.24344 44.1627 10.2731
1 207.031 10.5055 35.2577
1 354.266 35.2247 0.21668
1 176.247 21.4476 8.24182
1 312.575 37.2137 45.3718
1 157.775 40.1979 27.758
1 328.647 44.4442 34.4529
1 48.7644 25.5547 42.6141
1 77.3799 10.1382 34.2967
1 380.147 32.9826 22.8942
1 326.755 34.7683 11.5667
1 185.503 30.4405 11.8002
1 104.61 7.28804 17.1804
1 87.2187 13.0662 32.9226
1 270.776 42.359 45.6666
1 112.434 18.5186 2.74269
1 87.6794 9.98914 2.22989
1 235.367 41.0807 20.3814
1 119.526 25.7343 39.574
1 184.249 45.0538 0.603212
1 58.1427 46.8499 36.6807
1 234.691 45.3387 11.3317
1 65.6791 5.54745 49.0405
1 376.997 13.4977 10.2647
1 66.6085 4.38393 30.3234
1 355.799 13.3928 5.4778
1 136.429 35.8699 45.1901
1 296.416 35.8163 17.8263
1 237.231 4.46053 32.0718
1 242.66 23.4 33.4389
1 203.528 26.8686 36.2942
1 262.328 17.9133 0.055037
1 216.437 28.8129 5.8492
1 270.616 39.4371 48.3267
1 174.975 6.43275 11.3608
1 28.6806 6.82552 12.9768
1 301.95 2.48986 33.7012
1 318.274 28.6676 -0.0283491
1 95.2165 32.6117 48.7654
1 42.6995 5.96232 46.2484
1 394.834 40.3945 30.8395
1 14.6092 31.4148 47.3904
1 334.986 44.615 43.079
1 350.312 47.6156 29.1608
1 144.408 16.9652 15.2246
1 167.146 35.8894 3.79
1 250.362 45.1285 10.1137
1 111.428 10.5706 15.441
1 183.847 19.4786 5.78616
1 250.527 29.9537 2.58947
1 75.4347 3.37558 1.42879
1 98.1305 44.3679 19.8374
1 100.289 26.6342 32.1717
1 94.8707 26.8088 34.619
1 213.758 22.0803 8.47014
1 293.58 34.7322 23.7011
1 288.934 26.9253 42.5155
1 298.629 36.6652 18.2264
1 49.2266 6.90522 28.7727
1 64.2193 9.78406 12.7392
1 197.486 31.5225 42.6135
1 390.426 40.2047 41.0229
1 170.76 2.28125 30.0096
1 337.705 25.4731 15.5027
1 53.7341 12.3482 13.4804
1 219.535 20.707 0.862954
1 255.286 50.0729 0.828392
1 326.862 37.1331 23.4907
1 288.391 10.4613 50.1344
1 84.8779 8.21714 36.2581
1 53.4104 36.6518 30.3269
1 176.315 27.5867 3.03195
1 65.5619 22.2551 44.347
1 360.233 42.202 48.1825
1 242.566 4.50875 22.1641
1 314.693 14.7795 22.9642
1 358.986 25.7923 18.9144
1 129.278 13.9248 9.58324
1 17.0834 5.51937 20.4399
1 215.258 41.2387 2.29335
1 344.063 14.9412 9.0343
1 301.124 15.7535 26.5297
1 105.482 20.5075 24.0573
1 123.627 2.17817 7.48055
1 57.1579 46.9576 46.7501
1 188.329 21.6092 0.948707
1 99.7101 15.2312 33.037
1 106.377 -0.204341 16.4084
1 192.208 16.2361 31.0564
1 26.5458 14.6674 29.8786
1 196.288 8.57171 9.43084
1 321.569 18.7445 44.1603
1 233.847 50.1641 28.6077
1 -1.43377 37.5954 32.6704
1 351.603 39.8727 15.0197
1 1.93315 40.2214 25.733
1 217.017 14.2045 36.648
1 162.069 33.2502 24.9286
1 308.424 36.9545 37.879
1 51.6869 14.9894 44.6956
1 399.199 22.6222 17.6879
1 158.112 33.6202 31.162
1 366.083 23.1158 2.37062
1 211.279 7.68788 11.2548
1 383.47 14.5593 33.3919
1 96.2007 10.6504 33.1578
1 293.239 28.5551 49.3169
1 297.665 24.1911 18.208
1 206.395 38.3187 20.9485
1 205.105 18.2064 13.2126
1 234.765 21.7674 32.4977
1 119.587 39.0405 16.2351
1 -0.188031 49.1199 10.5456
1 142.014 36.8849 21.5932
1 145.586 44.6991 15.5563
1 346.512 38.4266 40.237
1 244.382 8.50121 42.5945
1 299.101 16.1529 27.6617
1 134.759 19.7855 34.1125
1 374.631 0.599053 41.482
1 312.252 0.418114 19.7452
1 83.3179 33.2567 -0.0202818
1 93.087 4.48197 27.3968
1 54.7519 26.5415 24.1703
1 309.614 35.5319 15.3277
1 156.804 47.5806 14.2487
1 179.834 47.9783 22.7724
1 33.2785 46.7532 40.5836
1 138.921 16.5124 32.6268
1 370.166 0.905735 19.2422
1 278.231 41.5205 19.7059
1 4.95561 38.2188 13.1581
1 331.54 10.4654 44.137
1 143.968 0.418373 22.4168
1 182.01 34.1554 19.0324
1 126.47 26.183 49.1056
1 247.897 18.7465 27.0413
1 150.818 21.4738 37.5804
1 150.773 45.961 33.4615
1 142.6 0.880314 7.53892
1 225.326 35.6917 38.3938
1 93.8853 45.6588 20.4378
1 191.384 1.67895 16.2753
1 221.217 35.2366 25.1278
1 156.679 28.3554 49.2384
1 345.468 31.4964 41.0285
1 300.555 17.8331 16.5663
1 337.452 5.45967 42.0593
1 271.559 -0.0212812 20.3804
1 261.111 49.7325 42.3824
1 81.788 49.0131 46.8582
1 29.4576 2.83465 17.3698
1 169.054 4.16984 32.543
1 33.7414 9.63476 30.0648
1 371.811 23.1931 38.2134
1 298.976 47.0438 29.495
1 356.514 9.21363 6.2463
1 72.262 10.9876 20.9716
1 258.973 7.77928 39.7951
1 82.0726 36.7234 -0.167002
1 4.95295 20.7065 44.2881
1 87.2154 29.4681 3.92645
1 399.78 9.46089 16.7951
1 89.9748 50.057 13.8361
1 253.159 48.0539 12.0588
1 33.6626 13.3111 32.3336
1 348.306 30.1111 8.51617
1 177.641 9.52958 32.464
1 86.6697 40.9355 41.0177
1 217.915 38.8952 17.0137
1 189.283 46.3289 6.6042
1 80.5319 5.68512 24.7406
1 151.731 19.648 15.7032
1 23.4175 9.15318 19.1843
1 215.608 7.26655 4.57292
1 42.8767 34.4852 39.0998
1 129.549 35.9516 47.9831
1 350.286 15.7743 46.3118
1 191.687 5.11108 22.1371
1 392.455 43.1023 20.0672
1 312.191 16.0685 13.2764
1 293.883 18.2399 38.1319
1 82.9398 47.601 40.3042
1 308.469 45.4729 4.22415
1 358.169 40.2772 3.22685
1 -1.55682 29.0013 12.3698
1 280.213 28.7169 40.6002
1 310.531 7.0371 36.4214
1 243.958 32.7322 31.0164
1 171.489 28.5323 49.385
1 301.23 11.6686 21.2869
1 365.874 30.8408 5.18472
1 292.44 26.9741 28.0982
1 19.8571 34.6461 48.0441
1 321.81 6.05657 15.6017
1 193.11 35.2811 41.2229
1 393.681 42.0136 12.6766
1 144.449 48.5173 49.532
1 212.784 18.3491 24.5749
1 114.461 28.9682 15.5252
1 330.783 16.478 22.1403
1 12.8269 0.904554 23.6251
1 228.86 28.0604 17.8319
1 109.8 14.1169 48.1902
1 119.814 15.4317 26.8165
1 33.6397 21.6241 11.3872
1 368.556 2.94699 45.503
1 366.757 13.522 46.242
1 283.259 5.93993 33.2818
1 188.785 49.5323 24.7846
1 233.275 12.7924 4.72799
1 239.237 43.2059 5.95835
1 41.2438 3.66096 3.59403
1 244.466 28.1376 45.6247
1 336.566 30.1755 5.65865
1 9.54612 31.9728 24.8275
1 325.957 18.7799 24.8865
1 53.3924 9.32753 22.0948
1 246.955 29.9388 26.9629
1 380.556 9.69257 12.0265
1 198.664 28.9521 6.43092
1 100.054 4.40418 33.4097
1 100.864 12.5215 2.1539
1 75.087 10.3243 33.6081
1 77.473 38.4913 8.28688
1 122.363 41.5936 17.2672
1 348.751 32.3497 15.2066
1 294.779 7.45377 17.0831
1 167.732 32.9085 5.71682
1 225.847 15.3193 47.6382
1 333.465 16.8314 10.7566
1 83.7205 46.6073 7.89753
1 91.3516 17.2079 19.4238
1 306.034 14.2397 25.1098
1 196.164 9.86626 11.4396
1 254.713 9.62794 14.1465
1 62.7407 40.2117 24.1398
1 81.5395 19.6495 35.0751
1 285.008 37.8467 1.69767
1 193.829 7.17564 2.5175
1 243.217 33.2975 36.1496
1 223.126 38.8419 35.4064
1 142.247 33.5521 48.7753
1 71.5946 46.2151 18.8995
1 275.731 29.3485 35.7659
1 36.5208 4.56672 20.4309
1 51.547 44.6662 0.531839
1 287.306 30.2492 17.6974
1 69.9775 34.22 22.1842
1 365.914 40.1952 6.92989
1 307.77 37.8507 -0.0485002
1 105.977 33.7972 16.7067
1 124.649 24.8777 12.6497
1 157.394 26.2496 18.6006
1 241.32 4.64707 38.5862
1 375.51 7.5537 48.5822
1 256.708 2.96518 32.8729
1 133.313 46.3944 34.9419
1 216.189 40.2302 4.25081
1 111.556 31.1646 34.1771
1 199.272 34.7264 45.9713
1 205.209 13.0012 16.2869
1 245.64 7.37894 35.8028
1 274.681 45.8819 29.5825
1 235.822 40.3554 31.8337
1 342.389 30.6866 2.22682
1 256.112 6.31943 34.0825
1 231.147 12.8645 25.512
1 309.231 42.3733 6.64432
1 339.98 39.8767 5.68615
1 98.503 1.08583 9.53622
1 256.218 22.324 35.9738
1 341.598 47.8668 41.2724
1 135.495 19.8479 15.5503
1 374.988 48.0703 32.9579
1 248.244 7.43246 33.0131
1 306.259 48.9422 36.3428
1 138.923 11.4707 32.8803
1 371.655 18.4548 15.7129
1 40.7418 23.3504 0.427852
1 147.133 17.8687 45.0158
1 99.7517 43.872 43.1487
1 397.135 17.0671 21.9331
1 46.9334 42.171 40.7396
1 42.3468 48.6078 38.8156
1 176.002 22.9669 14.7542
1 136.881 40.2579 14.7372
1 366.728 6.83624 5.54681
1 301.871 19.9067 34.6165
1 87.8279 16.7221 49.2241
1 29.2553 11.0178 41.6713
1 5.87969 18.4177 12.2131
1 242.843 43.6212 47.5246
1 80.6732 43.1487 44.4378
1 77.4441 26.1874 43.5084
1 19.2763 26.9278 46.9613
1 181.551 16.0512 43.9141
1 239.78 37.7786 32.5991
1 13.9126 27.1552 3.15776
1 85.6005 26.9034 30.7489
1 30.8513 6.95615 50.0424
1 111.266 37.7168 45.0166
1 283.958 8.02257 49.849
1 125.379 8.26455 49.4459
1 346.28 36.6117 35.8125
1 237.959 20.2831 39.5173
1 327.36 21.9454 6.49731
1 55.7189 22.8507 22.0858
1 160.295 46.6634 49.1591
1 36.0293 10.2477 13.0513
1 391.977 44.6635 32.2184
1 253.551 30.3226 45.0785
1 111.741 32.3561 2.99098
1 198.998 26.9271 17.725
1 101.581 2.35779 11.4639
1 296.478 15.2952 31.24
1 217.202 3.59817 38.3742
1 70.0358 21.6445 40.8849
1 273.899 47.2439 14.1131
1 155.056 43.4411 9.76149
1 397.28 2.26217 30.9585
1 204.941 21.1813 22.5111
1 86.0374 43.9586 25.0869
1 5.51459 29.666 14.9847
1 232.29 36.5707 20.603
1 379.349 2.36768 29.6833
1 139.092 46.0995 7.68486
1 31.6716 23.1532 1.35002
1 265.925 25.1482 12.9786
1 325.474 44.4133 45.8651
1 246.85 -0.134704 3.73399
1 68.3771 8.73627 35.1256
1 396.84 18.5742 12.4169
1 311.048 18.7965 32.0163
1 0.0283841 16.5958 21.4384
1 5.60503 33.3536 39.271
1 58.6819 48.0718 16.5847
1 298.961 44.4012 9.19954
1 245.824 39.7142 19.7061
1 63.7908 48.1827 12.2266
1 361.06 43.3035 9.10746
1 392.104 24.4696 17.1996
1 345.979 21.6393 30.0487
1 242.515 49.2729 31.7132
1 135.457 32.573 14.1239
1 392.409 22.2169 12.3477
1 76.9707 33.0245 28.5527
1 113.132 7.79216 38.8514
1 12.1398 43.3043 32.6512
1 369.549 28.1287 46.9898
1 267.183 48.3937 48.4142
1 351.031 34.1284 37.5469
1 135.124 16.3017 33.8159
1 297.079 37.0712 2.14212
1 75.2861 16.8947 37.9742
1 61.1391 35.0904 41.3506
1 67.4654 29.5479 27.9747
1 119.381 41.2342 30.6683
1 33.2971 39.4031 0.713963
1 188.312 25.6289 29.7545
1 286.783 27.242 10.9813
1 253.47 50.0665 40.2272
1 250.794 45.0101 36.1234
1 29.0289 4.82565 29.9664
1 243.639 1.21457 39.4436
1 375.228 25.7884 18.9212
1 269.52 10.8354 17.6474
1 36.3971 30.4425 37.9148
1 329.647 29.3359 31.9509
1 231.447 8.25119 46.3809
1 230.926 39.9252 19.9698
1 78.0245 27.7576 41.908
1 363.078 29.698 2.94782
1 8.52288 39.0472 47.266
1 58.2024 12.6739 45.4505
1 340.012 8.30556 13.8402
1 319.062 16.7489 26.805
1 378.592 35.665 41.7979
1 240.25 38.0047 14.3399
1 188.106 24.7979 35.5529
1 14.2928 15.2244 44.0176
1 389.332 23.464 38.9165
1 188.796 18.5396 41.298
1 200.938 32.559 4.11425
1 83.9271 15.08 22.4679
1 96.2372 18.9221 5.76292
1 162.103 21.8102 38.1281
1 182.67 15.1332 15.4135
1 188.369 37.9851 44.7005
1 390.942 27.9845 17.7896
1 -1.36228 -0.0106393 16.2806
1 188.107 16.0069 20.8148
1 -0.345926 15.028 17.894
1 303.065 3.32181 31.7646
1 145.218 34.2258 45.3421
1 398.607 28.0677 15.9876
1 374.828 21.0816 44.9081
1 143.308 12.5662 14.7124
1 3.24876 35.4911 30.4907
1 135.245 11.76 3.9041
1 142.045 40.0164 24.9137
1 277.326 24.4971 20.5892
1 359.153 6.20738 23.2988
1 9.53411 12.4799 10.3347
1 266.191 40.8796 30.2132
1 333.849 41.9513 23.0005
1 338.562 45.601 0.603441
1 305.65 3.3696 40.2073
1 391.632 40.6408 12.5108
1 216.354 45.9515 19.7639
1 77.7577 3.48572 45.2171
1 98.8503 32.9128 36.4231
1 61.9954 33.1239 3.56703
1 90.101 5.85753 9.96163
1 102.691 15.5287 49.6753
1 13.6816 38.3846 6.60023
1 114.03 29.2192 31.7792
1 214.923 37.2296 17.413
1 386.018 31.3451 5.78399
1 353.314 34.2035 36.9153
1 360.621 36.5596 11.9491
1 373.441 3.5054 48.8452
1 384.251 28.3401 1.17375
1 63.4459 36.7326 25.3835
1 401.55 13.1283 32.649
1 257.64 10.4325 37.6619
1 56.1725 48.8804 33.9728
1 26.5041 18.8892 1.87753
1 167.836 49.2752 50.2246
1 43.3621 9.64708 45.7641
1 387.975 10.5786 38.7939
1 165.108 1.21654 43.3542
1 192.739 23.1155 45.8453
1 71.5329 34.0855 37.4253
1 64.9839 33.0392 43.2195
1 334.958 47.2474 26.5835
1 324.624 22.7968 17.0002
1 79.1587 19.4275 34.828
1 328.279 25.3395 33.7754
1 182.687 19.1352 15.7513
1 302.517 21.1717 26.4967
1 42.517 0.340385 44.7535
1 20.0964 12.923 2.09201
1 170.262 4.27242 9.10561
1 53.772 4.84501 39.1768
1 341.756 35.9282 46.1689
1 78.1831 12.1001 29.4611
1 307 41.9402 27.6688
1 197.318 27.2756 39.4547
1 145.644 49.9286 40.1237
1 6.79129 2.80979 36.5545
1 189.621 0.142205 9.16917
1 267.88 16.3048 11.1389
1 249.703 9.22342 29.5716
1 368.635 5.25139 19.8545
1 319.553 18.5427 19.9072
1 147.547 35.8871 24.1811
1 64.3315 12.3422 21.1502
1 126.015 35.9842 50.0129
1 317.528 37.7047 35.8263
1 214.41 45.1387 16.5557
1 266.571 36.6676 33.6039
1 387.594 17.3752 49.8872
1 51.367 6.77639 26.0207
1 166.224 46.933 47.8602
1 100.941 11.6684 38.199
1 270.887 24.1062 6.07818
1 320.959 5.42291 17.8644
1 355.245 5.98768 17.696
1 233.858 47.8289 23.598
1 381.494 45.9739 36.4153
1 224.72 27.6243 40.4075
1 279.683 17.8877 49.911
1 221.361 43.398 2.29291
1 179.109 3.23796 39.4565
1 135.424 30.5008 29.2577
1 235.428 28.2358 38.2421
1 373.224 32.0661 23.9595
1 276.535 48.7814 41.3941
1 372.742 28.9058 36.8278
1 383.09 44.8078 32.5856
1 78.991 40.116 22.5219
1 236.831 31.6868 0.0790169
1 18.7514 38.7526 41.5294
1 240.299 31.869 48.9679
1 286.929 18.3342 41.5168
1 319.58 13.6242 31.6561
1 190.913 35.1763 40.2021
1 196.921 13.5522 14.2817
1 251.385 19.7911 28.805
1 372.666 27.1629 13.8934
1 381.034 15.3488 20.2906
1 72.4458 40.4736 31.1348
1 172.118 42.74 29.7424
1 332.623 36.9769 3.59781
1 368.922 12.6407 45.463
1 286.929 32.4376 5.92363
1 190.373 8.85356 21.7083
1 253.317 1.40833 14.8934
1 280.822 39.3075 37.3164
1 97.9603 28.1339 27.0918
1 341.683 0.424519 2.46421
1 157.003 28.9826 5.46075
1 341.056 2.04666 4.10691
1 136.107 22.1269 47.6111
1 121.773 48.8053 50.0188
1 103.539 21.6307 18.4521
1 52.3975 12.8992 10.0397
1 0.103499 17.2482 43.3333
1 51.2881 43.0308 43.4916
1 303.826 -0.219875 22.1244
1 60.3466 41.215 31.8946
1 170.006 6.98446 44.9773
1 226.749 1.63474 32.9834
1 338.598 42.5241 20.6946
1 153.014 31.7421 15.9191
1 84.7147 49.5622 44.2083
1 109.181 29.0491 50.193
1 118.488 34.8768 32.1145
1 179.961 34.7294 26.2564
1 226.068 40.1843 30.8902
1 14.8111 10.534 48.8968
1 213.852 4.20627 22.0594
1 349.071 16.4406 30.5241
1 266.59 31.8237 48.5092
1 18.1328 4.51414 14.8872
1 243.827 47.9622 15.7091
1 217.924 46.3471 16.2176
1 349.751 16.4961 10.1484
1 91.7075 46.854 48.5679
1 220.112 10.2858 1.02046
1 99.7105 21.3605 13.2571
1 261.741 21.0078 32.744
1 235.079 44.0455 9.30849
1 194.417 48.8285 19.8968
1 119.056 48.8311 41.5488
1 205.175 5.16317 9.15274
1 41.8604 27.2699 49.0761
1 66.4411 8.25153 25.911
1 119.158 16.9771 5.61291
1 239.177 6.48255 30.0116
1 48.3039 16.2005 27.205
1 375.281 21.5682 4.36728
1 200.347 26.0788 49.313
1 257.006 35.2748 48.8511
1 320.877 42.8223 9.26888
1 193.393 41.7384 22.696
1 145.649 26.6971 44.0691
1 193.61 45.6814 14.1989
1 106.923 39.4024 45.5916
1 392.347 23.8096 6.51291
1 382.689 42.8334 9.12276
1 222.548 15.4097 45.8993
1 19.6716 33.5022 29.7336
1 164.351 37.3332 20.9674
1 328.215 41.5636 26.5543
1 390.637 1.3487 5.8034
1 51.7361 12.4929 12.2733
1 325.057 43.357 24.4446
1 315.719 12.9663 33.1488
1 287.536 22.3629 2.88025
1 205.475 17.5683 10.9771
1 219.596 22.5033 4.51844
1 52.9838 27.9656 24.9754
1 135.961 34.9495 4.92058
1 147.076 25.3963 5.91799
1 340.829 18.1306 39.654
1 41.9877 44.0917 41.5723
1 84.5829 11.5839 37.5624
1 306.265 26.9185 28.6789
1 83.1982 44.6564 27.8509
1 357.534 49.8554 21.3513
1 290.958 44.822 29.3354
1 151.86 41.6024 47.725
1 213.113 45.1895 22.8826
1 166.79 34.9317 22.9347
1 129.194 45.8053 10.3758
1 165.792 0.0650391 49.9399
1 26.1071 11.9383 10.3624
1 57.1257 3.72564 4.74318
1 248.594 27.4816 29.0195
1 271.062 43.9189 41.8311
1 135.621 0.61066 43.6381
1 17.2352 44.1178 26.5627
1 13.9956 29.0382 35.8813
1 338.981 3.89433 1.82394
1 219.404 45.8692 11.8876
1 93.4017 29.2044 45.9356
1 182.644 31.9914 19.7968
1 57.2347 23.0753 12.192
1 179.472 37.6966 37.3688
1 24.5782 28.3233 48.747
1 171.453 25.5993 29.7327
1 350.015 29.3278 32.1181
1 363.976 23.2414 38.8383
1 326.508 29.1664 9.95485
1 335.06 4.97824 9.46928
1 273.342 3.2608 37.7118
1 141.372 42.5265 45.3874
1 395.973 36.813 11.8898
1 287.683 7.31716 43.517
1 65.373 23.2761 47.7793
1 41.1691 23.2242 3.92813
1 114.629 47.1959 49.3508
1 160.898 40.3328 37.0358
1 130.888 1.60617 33.2463
1 127.204 10.9375 28.3527
1 372.196 16.777 9.15162
1 128.525 45.131 16.2946
1 3.03331 8.72984 49.0088
1 20.1171 39.753 12.0607
1 270.865 49.8366 45.9192
1 107.081 1.84068 43.3936
1 219.718 49.8625 38.3258
1 393.081 42.6176 35.2629
1 400.871 5.75167 26.1091
1 68.52 13.9431 15.4716
1 264.582 49.0746 36.6074
1 55.4107 12.679 42.7912
1 298.714 30.7663 32.932
1 196.565 49.9362 19.8311
1 321.526 24.3749 0.632884
1 92.6068 33.505 12.939