24645
Atoms. Timestep: 6001121
1 11.0438 33.3446 40.5326
1 179.816 34.9378 40.0238
1 186.311 32.8676 10.7359
1 64.6918 41.6085 3.05011
1 1.7376 6.78052 34.5924
1 195.599 11.4099 45.859
1 74.8982 25.177 45.3405
1 49.1955 34.383 44.8057
1 122.503 4.77594 11.176
1 171.247 7.04676 5.49337
1 52.6192 15.022 34.808
1 171.696 14.0801 26.3341
1 94.5028 40.2108 13.6527
1 119.983 1.33788 29.1128
1 183.259 10.0666 47.1939
1 142.607 23.5891 14.646
1 87.7771 21.686 43.6988
1 56.6936 0.104345 15.5263
1 -0.251228 28.4137 43.7568
1 89.9725 44.7107 40.2792
1 70.8065 17.7404 49.3334
1 101.549 36.6973 41.4763
1 101.334 0.436763 36.8121
1 145.994 2.73165 40.8794
1 23.4133 35.4351 35.6317
1 183.446 0.202398 2.18709
1 163.107 26.776 2.07453
1 33.9107 0.630188 11.7506
1 158.285 47.2314 44.1183
1 73.9013 18.5318 35.1552
1 10.0745 36.5114 5.63023
1 99.8382 29.2575 23.8364
1 63.7158 46.3083 17.3057
1 103.281 2.10753 24.3086
1 23.4075 37.4767 18.2054
1 104.781 19.8592 3.51878
1 193.324 43.6127 37.4992
1 98.9314 3.28347 36.0638
1 66.2692 11.2759 38.5276
1 80.5338 40.1406 33.2842
1 190.166 40.7362 45.8222
1 79.8824 3.21258 32.6294
1 151.622 32.2356 47.1052
1 72.7369 45.655 9.95242
1 42.0544 8.82945 39.1422
1 28.8747 10.2957 35.9061
1 13.6918 1.40548 28.1242
1 44.2582 32.9524 42.3059
1 19.7442 39.0874 44.735
1 98.3871 26.8429 29.3722
1 151.848 43.1385 5.19029
1 22.6005 47.981 30.3116
1 29.7904 44.6718 34.9684
1 8.67379 14.5917 42.5092
1 4.39849 49.0509 47.641
1 65.7352 49.7002 34.4507
1 42.3155 11.0803 11.287
1 1.97272 32.8011 21.9592
1 63.5673 8.40109 38.1326
1 82.3967 32.9791 49.2754
1 55.436 0.423491 25.5209
1 175.031 8.97548 39.5766
1 43.7039 42.1482 35.9792
1 110.541 32.1433 17.7418
1 200.333 43.0985 13.0893
1 35.5999 32.8868 25.7679
1 95.2892 10.4497 20.2404
1 108.134 49.1289 16.5415
1 58.8395 40.426 25.2912
1 46.8949 31.9143 19.3436
1 50.2689 10.7031 26.6855
1 7.48736 18.3428 46.041
1 182.326 48.4428 39.2854
1 61.9409 31.3876 34.4119
1 153.049 26.1873 33.3348
1 31.7223 25.323 27.1609
1 130.419 49.085 47.947
1 181.115 42.2155 20.0294
1 64.025 13.5124 25.7469
1 120.548 5.04494 46.3687
1 47.1862 12.1203 43.5027
1 29.112 46.7047 22.3059
1 147.695 15.9202 38.1476
1 70.0099 22.7693 29.7518
1 193.942 50.2178 27.2916
1 179.549 14.307 7.16414
1 150.798 14.4156 34.6578
1 191.467 33.4945 4.32041
1 64.0524 44.4943 36.2508
1 156.877 16.7635 15.711
1 192.811 36.2711 31.6502
1 86.3291 18.7153 21.0739
1 175.458 48.7667 44.0398
1 61.2516 23.4864 9.36921
1 165.369 46.6681 16.4968
1 80.0646 20.4084 45.4854
1 113.556 47.8971 36.3781
1 124.826 24.3144 6.34227
1 98.464 32.1896 37.8115
1 -0.671021 48.4845 26.283
1 22.8887 3.47432 23.5251
1 105.018 31.5304 6.58716
1 154.612 22.3593 8.47594
1 158.717 45.249 10.7119
1 61.8465 34.6795 35.8288
1 62.1629 7.42317 4.25814
1 98.14 50.1204 8.6568
1 37.8035 34.797 11.4448
1 116.896 23.3945 29.2858
1 169.911 2.89132 12.5442
1 90.134 20.0556 24.0392
1 2.43872 44.3929 23.2753
1 137.395 4.52665 7.0937
1 134.207 16.064 11.4418
1 95.8198 0.176805 48.9005
1 186.215 0.0924838 12.9334
1 139.15 2.35307 26.9246
1 87.4707 12.0868 20.8667
1 138.538 40.8987 47.0743
1 186.075 43.0048 23.3276
1 0.568498 44.8248 9.02848
1 14.0906 30.0408 3.15919
1 154.74 0.550615 31.4667
1 26.7713 1.92908 5.22663
1 91.7246 44.0933 14.8105
1 137.373 27.4918 27.5795
1 20.672 44.3019 1.93532
1 72.6087 28.7996 33.3977
1 108.214 34.6991 43.0204
1 77.91 34.2042 19.8132
1 11.4099 32.2405 45.3812
1 108.279 11.6321 28.2233
1 149.659 10.7708 27.2781
1 125.62 50.1989 49.3568
1 197.964 35.1341 2.82456
1 102.465 8.95611 0.478114
1 88.376 11.8844 24.1281
1 49.8794 34.3748 31.9648
1 182.874 44.8881 3.92082
1 30.3369 27.3623 46.4917
1 200.112 49.2606 41.1041
1 53.6276 13.3132 24.7479
1 176.947 11.7062 29.9017
1 197.01 17.3653 1.56178
1 92.4565 0.10819 20.5285
1 151.388 34.1629 34.92
1 15.5868 21.3937 38.7436
1 166.05 48.5003 35.3018
1 29.7134 11.1015 3.80603
1 101.073 21.7105 12.814
1 149.52 8.99629 12.5299
1 114.853 29.7316 4.61089
1 48.0943 43.8676 35.7249
1 112.919 1.38718 34.0882
1 122.854 45.4259 14.1012
1 169.25 16.6488 10.1999
1 26.2004 0.067116 15.3475
1 21.1858 44.6381 36.8748
1 63.5298 27.6481 3.63987
1 163.208 26.312 31.0481
1 88.466 34.1762 18.0788
1 134.578 48.6305 47.0804
1 49.6017 38.7757 24.6118
1 4.02623 3.10345 40.2471
1 29.8448 45.8836 10.7915
1 62.6715 9.24976 13.0987
1 50.0165 12.1087 22.9185
1 152.688 10.7484 40.5959
1 35.9705 46.9763 23.39
1 -0.659938 21.2945 34.3718
1 34.58 50.0306 15.2621
1 117.377 35.8456 49.753
1 42.1195 48.4297 37.6256
1 121.497 8.95973 40.622
1 32.3244 32.624 3.07033
1 63.6092 25.0836 7.65057
1 33.3735 16.2505 11.3909
1 83.1406 31.6008 44.988
1 85.1335 26.0586 11.657
1 165.641 46.3035 42.8643
1 184.176 36.0281 0.58115
1 8.05485 3.25906 8.68826
1 199.049 36.3116 39.5201
1 1.39374 45.7791 6.90266
1 30.1558 2.16052 23.7967
1 113.788 29.9005 34.1706
1 120.095 42.8886 32.9463
1 5.93483 2.29508 15.4701
1 61.3046 3.41997 33.0642
1 95.9485 37.1645 8.6825
1 185.942 35.995 21.4153
1 156.591 24.7549 32.8765
1 126.899 8.37706 20.8858
1 172.337 39.0629 43.3515
1 40.3093 13.0824 6.59025
1 183.942 12.6253 17.5109
1 159.469 36.0495 -0.0768251
1 77.8985 18.5672 48.1321
1 2.05645 4.19033 1.85265
1 44.5241 32.1402 33.3879
1 109.524 27.73 46.5894
1 19.3507 48.4307 4.45774
1 8.71115 21.8063 45.0686
1 189.616 44.8867 49.8521
1 26.9868 24.2949 44.5044
1 32.8429 45.7123 19.1557
1 85.9098 10.2094 32.5306
1 191.024 42.3401 7.78725
1 128.247 38.3585 44.9625
1 142.313 1.1399 20.2682
1 152.495 34.6531 44.1169
1 145.941 10.7569 24.9098
1 117.892 13.5186 13.6386
1 140.045 42.2344 42.0673
1 169.694 22.3697 14.3869
1 65.9599 12.4221 48.8839
1 65.6653 28.8761 6.67329
1 200.943 16.5974 5.24839
1 108.287 5.95942 30.5789
1 119.366 35.3163 8.47723
1 199.331 7.70695 9.42789
1 102.444 23.4538 31.2527
1 68.436 48.727 15.0085
1 118.357 31.014 22.7483
1 77.9349 24.1542 28.6525
1 196.695 0.629607 22.5002
1 78.6809 31.9278 0.153225
1 83.1668 9.12166 4.06304
1 131.304 39.4086 35.101
1 33.3121 29.8185 0.596303
1 133.697 4.98809 47.917
1 23.4886 47.5147 47.3663
1 85.8384 35.8052 26.8539
1 110.766 34.0651 33.8898
1 44.3036 18.0565 48.9414
1 170.156 26.895 23.2763
1 163.909 7.87596 6.35646
1 150.149 46.0854 20.2663
1 106.238 9.51407 39.8576
1 55.2135 5.99913 24.1135
1 181.563 15.4207 42.416
1 64.3439 10.9322 35.2041
1 5.11433 22.2192 14.6451
1 73.9476 32.8526 4.54756
1 23.186 18.7449 11.4715
1 152.489 29.6264 0.0162025
1 107.455 45.2103 15.5279
1 93.7389 24.1108 7.50248
1 77.9172 14.6677 46.6806
1 114.18 28.8846 38.0298
1 101.774 9.84476 5.72098
1 9.77542 46.2775 30.7465
1 15.5839 48.7501 4.52154
1 167.769 23.2475 23.3868
1 176.358 16.8137 9.6828
1 179.012 19.0826 15.2553
1 121.892 46.4906 9.241
1 86.2019 45.0987 27.5561
1 109.521 39.5092 16.0787
1 173.574 47.5099 5.03076
1 115.506 7.24819 12.8047
1 83.2091 46.5261 41.0642
1 56.0083 30.5717 7.57326
1 24.9125 9.2079 3.20586
1 175.816 30.7488 16.8896
1 70.5285 40.7311 38.0551
1 183.881 27.6225 6.09219
1 172.046 44.769 24.1423
1 35.1055 13.8112 14.5361
1 67.884 6.51032 34.2854
1 53.9787 14.9802 48.2194
1 148.527 21.7707 17.9018
1 48.3541 32.6127 1.90876
1 89.9957 21.7814 10.4354
1 183.874 19.3986 11.8131
1 144.512 17.3209 15.4666
1 25.4212 13.9639 48.0692
1 135.114 23.1301 18.6243
1 58.9191 14.9733 30.8614
1 79.5945 24.1376 41.5308
1 136.633 11.2008 7.06264
1 165.612 8.95579 43.5722
1 152.051 12.2783 13.4463
1 95.2789 38.51 45.4782
1 138.92 25.4872 16.3751
1 33.4638 21.9297 5.04338
1 109.338 23.9944 31.9482
1 6.59672 7.46245 47.2828
1 168.306 19.6799 43.7016
1 185.319 37.8039 40.8104
1 194.229 9.27819 42.8106
1 117.576 36.5278 1.54986
1 194.035 47.2554 19.3108
1 178.491 18.3377 30.5812
1 193.83 37.459 46.5478
1 68.3789 1.53294 27.3326
1 30.5035 28.947 33.4643
1 9.81545 6.27454 12.397
1 194.086 10.415 6.28195
1 160.609 27.5666 15.1318
1 166.457 26.0317 33.331
1 0.732745 1.60354 43.3375
1 102.507 18.3903 44.2737
1 161.956 31.7598 48.4615
1 153.125 1.54295 24.1053
1 121.032 29.9836 28.118
1 6.16444 11.3156 4.40937
1 35.262 33.6756 8.91084
1 12.5891 22.989 2.63404
1 19.8984 36.0304 8.79235
1 67.7581 18.0284 11.0198
1 45.4815 39.6978 47.577
1 3.19826 44.5836 47.0216
1 140.197 48.3034 15.5422
1 66.3729 13.3972 37.4071
1 190.553 24.1478 3.23955
1 184.538 6.49107 5.408
1 78.3668 36.1968 12.3776
1 108.084 3.76543 1.5293
1 138.927 8.28811 26.4527
1 114.21 48.0435 30.6207
1 0.0275337 5.25282 2.58259
1 5.10517 21.5149 45.7314
1 30.5798 21.2978 31.1567
1 57.4976 27.7299 39.5407
1 15.9358 11.986 31.8525
1 52.2646 46.4904 10.9196
1 84.3865 48.7838 25.6644
1 69.1837 34.1352 46.5963
1 195.762 17.196 5.44115
1 72.8792 24.4737 16.2265
1 1.51628 1.38875 49.5083
1 39.3081 27.2293 18.1459
1 124.499 38.83 1.12287
1 107.217 39.7994 40.0964
1 157.163 44.7899 32.7611
1 166.856 49.6597 44.7268
1 143.325 50.2192 2.48807
1 191.636 26.8208 9.45411
1 64.9181 46.305 34.9734
1 110.825 7.85351 4.70719
1 144.862 16.6535 4.02195
1 33.2041 47.7006 42.2447
1 43.2921 20.2973 1.62079
1 138.326 5.87918 29.1722
1 137.256 26.7943 0.101847
1 80.5002 0.657692 15.2295
1 188.675 4.49259 13.7122
1 49.5198 38.7002 41.3785
1 103.034 29.8983 3.85311
1 1.61284 26.0141 36.6525
1 159.485 38.2982 20.827
1 111.205 2.65639 41.3617
1 101.482 40.2164 16.0346
1 86.6788 32.3269 25.7743
1 68.977 10.3489 23.1216
1 137.882 45.1856 36.229
1 7.76925 13.2385 44.2233
1 77.9629 0.259197 31.3524
1 128.674 21.0376 5.43764
1 174.794 4.87723 12.641
1 166.028 45.9664 9.32364
1 21.7968 13.2738 14.4538
1 147.454 26.7265 0.8
1 79.8571 39.1565 41.0079
1 175.934 18.473 2.27681
1 61.2023 42.1814 20.0392
1 176.094 21.0478 39.5395
1 150.931 6.43623 28.3756
1 147.463 29.7558 27.2072
1 190.083 45.7282 14.2141
1 3.52002 48.2748 8.99269
1 37.6095 11.6361 37.2514
1 26.7632 7.07661 21.7494
1 75.3371 50.1903 27.757
1 137.647 31.7595 10.8262
1 164.447 41.9125 35.7486
1 2.11663 2.10715 7.04376
1 14.1018 14.3372 40.6569
1 165.411 21.8606 2.50699
1 151.18 7.484 24.7027
1 30.3823 26.624 22.7467
1 52.4901 15.1016 23.7063
1 43.4288 -0.135854 6.6434
1 80.7625 50.1948 1.50974
1 113.149 15.9474 36.6768
1 165.097 19.2943 9.66781
1 31.3906 2.87205 0.606746
1 36.0524 33.4718 1.99548
1 148.741 45.2988 5.97119
1 122.701 21.3987 30.0677
1 2.9182 3.16018 17.5131
1 74.0885 35.6716 29.2366
1 188.752 27.0474 6.35233
1 173.938 33.1857 3.727
1 172.532 24.0954 44.1792
1 197.374 37.2472 50.1378
1 165.121 38.4383 39.7477
1 135.018 13.0013 16.1483
1 11.9118 14.9268 40.7118
1 85.7306 47.4526 2.53354
1 48.7155 47.1621 33.3038
1 1.9341 12.1802 36.5768
1 28.9029 32.7117 43.4418
1 183.11 30.3904 25.4271
1 84.2298 27.177 45.3137
1 79.5908 45.709 12.6856
1 81.4133 0.608767 29.7153
1 159.595 7.12362 9.16071
1 6.83416 12.9292 35.9893
1 186.411 0.509192 37.3584
1 192.804 36.7464 25.7908
1 52.5592 30.8731 12.2155
1 52.8296 21.3054 20.2684
1 172.261 14.2404 49.2606
1 61.3208 29.8196 10.4764
1 114.001 12.9368 30.5699
1 79.3153 37.6072 14.0063
1 185.508 14.1615 28.151
1 128.392 23.414 37.4765
1 108.785 12.1744 47.6751
1 97.1125 15.3699 27.8038
1 170.657 34.1663 8.45503
1 109.507 29.2703 3.96572
1 171.801 3.65597 7.11673
1 114.239 12.6487 8.46413
1 98.6627 9.49433 3.55481
1 8.88518 30.2709 13.518
1 113.101 19.8551 40.6214
1 164.563 15.7895 50.1995
1 105.426 18.9397 37.0173
1 145.938 33.4588 24.0223
1 5.48432 29.3111 12.7883
1 90.4693 35.2343 31.9285
1 134.612 20.3282 13.5418
1 185.157 43.8458 10.1641
1 168.243 10.8812 29.3468
1 92.0558 41.3905 40.4176
1 115.345 26.1424 35.6634
1 159.451 21.0274 3.46356
1 73.6173 38.5833 8.21169
1 175.165 40.4434 25.3278
1 170.093 20.2787 1.2946
1 108.707 9.55232 27.375
1 110.003 48.1863 17.5573
1 31.3959 31.5754 20.0951
1 182.914 4.63768 28.0495
1 143.736 2.60681 37.9069
1 156.405 35.6645 27.1865
1 38.077 13.0359 26.9281
1 183.409 33.3346 20.9378
1 83.1217 49.6756 19.66
1 151.028 10.2981 2.58498
1 101.155 11.7734 29.8678
1 146.915 4.20679 49.5993
1 19.8618 14.8571 7.97597
1 160.306 30.6233 40.9737
1 79.6805 13.6473 45.3699
1 147.95 17.4428 1.98309
1 114.976 3.93521 40.0384
1 158.707 9.64273 22.801
1 197.724 25.5189 29.5978
1 69.4235 15.9569 1.68766
1 181.682 9.82714 21.9912
1 15.2195 32.467 0.347684
1 9.16691 25.519 44.635
1 113.226 4.38761 27.7931
1 111.445 3.81484 10.4486
1 183.775 32.6618 25.7673
1 61.2645 40.9705 43.2636
1 154.967 13.5005 16.6986
1 96.7976 0.49626 29.6362
1 4.31619 32.3287 24.6411
1 164.44 25.1729 10.7443
1 187.712 12.0252 39.6693
1 187.461 10.6836 3.02376
1 23.652 39.1129 16.4756
1 21.4139 5.64121 35.6819
1 12.344 7.58505 8.10697
1 120.35 50.1211 25.8446
1 11.9131 11.879 47.4314
1 42.1997 37.2695 38.5534
1 60.8147 34.9705 16.0932
1 30.7918 26.73 50.0596
1 166.553 26.0644 22.0163
1 150.132 43.6357 37.5773
1 105.253 19.9494 46.4089
1 92.0519 21.2637 9.41637
1 111.247 6.99875 41.205
1 188.594 45.7015 9.74214
1 66.9427 47.4524 7.76705
1 114.152 27.4832 34.0654
1 53.3985 8.66469 21.1439
1 196.073 24.2204 2.44119
1 41.3115 9.56239 25.5496
1 53.8603 39.9155 17.0558
1 172.47 27.8833 45.7761
1 124.357 21.605 16.4016
1 44.0197 2.56513 31.4472
1 98.5964 27.4541 40.3976
1 53.7767 21.7194 7.2421
1 136.259 36.5079 37.7407
1 159.008 21.6373 49.3728
1 101.908 11.5162 45.6753
1 67.205 45.8171 34.2321
1 148.667 35.0203 42.8345
1 104.435 18.6132 1.59003
1 17.5345 43.2413 29.1718
1 55.0178 48.545 12.7988
1 29.4853 39.8621 12.6304
1 184.041 8.61449 43.179
1 161.939 36.641 43.1943
1 58.8243 47.6867 0.275365
1 128.183 17.2743 4.01962
1 42.0857 17.3252 13.0234
1 104.961 12.3815 34.2529
1 183.976 39.1579 19.7594
1 61.2208 34.3179 21.7487
1 122.294 47.7522 11.2049
1 194.127 40.9483 28.2892
1 33.5358 46.9456 7.22827
1 166.464 28.8844 40.3075
1 54.7915 15.6371 31.2653
1 153.609 31.2341 1.42927
1 33.3211 4.43308 11.0799
1 57.6063 18.0658 29.1838
1 34.2603 19.2492 24.8167
1 76.0188 8.51326 5.21552
1 118.603 33.5962 9.93132
1 22.2219 12.3938 18.4051
1 169.882 11.1673 24.9328
1 70.0673 23.6325 22.2785
1 193.462 13.6633 20.846
1 81.8315 1.83588 1.36872
1 110.543 49.3065 30.3197
1 28.3548 5.32476 30.1328
1 7.47301 5.7742 24.4391
1 147.149 49.6433 15.0536
1 95.0964 1.47646 4.71506
1 128.405 36.1405 25.6162
1 197.09 5.06507 26.3689
1 92.5539 24.3623 42.1361
1 11.1645 15.3088 1.48909
1 119.246 -0.141555 5.43601
1 168.658 29.0482 16.7778
1 59.2036 1.52552 4.65132
1 159.316 32.1914 26.271
1 50.7575 15.0765 27.1931
1 9.44502 43.5869 22.3362
1 34.3821 6.06323 21.6607
1 172.135 25.5494 32.0976
1 87.6774 23.3147 12.0395
1 40.4219 42.1029 49.991
1 46.1762 5.04494 43.2345
1 82.941 41.8752 15.1208
1 50.7144 29.1533 35.7388
1 14.9155 37.5328 10.555
1 140.452 20.0837 47.9342
1 0.877007 1.09587 26.1787
1 69.7321 42.2939 48.4869
1 27.2512 31.0417 31.3137
1 167.341 16.0733 18.0039
1 36.3958 44.6573 20.7632
1 2.78524 32.9556 7.43761
1 192.947 13.4928 27.1621
1 182.624 8.83592 31.3104
1 37.2757 38.6137 30.6669
1 137.426 20.3137 8.18516
1 101.134 9.30903 17.6289
1 88.1295 19.4485 26.9089
1 135.28 45.4811 28.7911
1 171.752 31.7122 41.9859
1 92.7376 29.7209 20.4644
1 155.392 24.1316 37.8254
1 100.8 49.3818 14.3133
1 22.2535 11.7227 44.2008
1 136.027 36.3503 2.55017
1 186.796 33.1182 19.1383
1 35.5813 1.57577 1.83343
1 56.5734 34.5659 16.0828
1 30.0615 40.3801 31.0688
1 152.373 43.6015 34.3997
1 127.094 18.7022 15.3856
1 159.264 38.2988 33.043
1 54.6861 12.9026 40.9856
1 72.2844 28.1125 15.5509
1 163.223 1.86624 20.6514
1 40.9972 42.2907 23.0094
1 96.4935 17.3274 36.9786
1 122.041 11.0699 4.89968
1 35.9771 8.44114 29.3444
1 55.6583 45.3509 30.3854
1 11.7901 14.7911 12.1487
1 33.0741 30.2367 15.0176
1 80.4552 22.1402 33.0631
1 139.998 34.6941 2.98566
1 131.576 31.7718 12.7719
1 171.742 32.4264 7.18531
1 193.267 18.8336 18.1535
1 45.0329 45.8687 32.7265
1 114.768 0.22636 24.3655
1 5.54797 17.84 23.0454
1 86.3293 1.64033 8.34334
1 154.679 32.5846 22.0839
1 7.85096 14.9488 48.3108
1 142.737 17.1413 17.0512
1 156.41 27.9648 5.07417
1 148.355 17.9872 6.38573
1 139.431 8.53341 37.2477
1 25.3408 45.4306 50.1138
1 44.1561 41.1724 7.51998
1 36.6694 23.114 43.9492
1 194.675 10.9964 10.3702
1 129.985 34.4399 21.5406
1 124.32 26.8589 11.801
1 135.929 40.5403 28.2088
1 1.92903 11.2167 17.9173
1 73.4738 34.9793 7.2822
1 14.9848 20.4494 18.3107
1 98.0566 1.19422 6.86147
1 175.28 23.7583 10.0173
1 117.392 4.78197 47.7389
1 36.5417 31.532 34.1513
1 90.0181 9.88063 17.6147
1 9.34853 18.2395 35.7274
1 78.9406 42.5021 30.7022
1 49.0938 33.2682 4.1226
1 74.8571 31.121 40.5297
1 74.0528 24.5637 3.27477
1 14.0976 43.052 6.91022
1 60.262 9.5385 30.7167
1 184.703 46.2946 30.1338
1 125.931 37.3338 -0.0110501
1 169.706 39.5147 24.46
1 135.354 12.7951 1.95507
1 171.144 21.6953 33.7937
1 89.2425 31.9843 1.67215
1 44.8015 3.95455 1.1466
1 145.316 1.52044 29.0618
1 62.6851 18.1858 26.1606
1 187.92 27.9995 19.997
1 117.068 34.47 18.1076
1 160.332 23.9636 16.5676
1 99.2944 49.3416 50.2152
1 191.694 36.5989 6.71081
1 84.9825 35.5695 22.6998
1 137.668 0.034281 39.5375
1 173.877 46.3847 38.0783
1 96.4545 20.144 44.2259
1 123.363 25.5846 42.9339
1 125.279 5.76126 18.3871
1 83.3843 40.8984 38.6153
1 5.4839 49.9897 25.4736
1 98.5807 26.0659 22.387
1 71.6346 1.64927 44.3138
1 135.434 2.4269 26.0709
1 102.704 9.95244 24.4162
1 166.161 7.60821 35.3127
1 48.7531 24.4524 22.3088
1 32.3426 34.0399 14.3888
1 137.105 44.4956 46.3646
1 68.3105 37.3149 42.1061
1 64.9566 9.85449 23.5944
1 37.8718 4.58948 48.5731
1 151.842 39.0792 3.82494
1 80.1613 34.0754 45.5467
1 95.4068 37.1824 49.1396
1 5.30375 12.0165 12.5896
1 60.9398 49.7478 19.2073
1 196.022 2.57354 21.051
1 142.871 27.0995 16.5476
1 183.651 48.6176 3.43597
1 192.592 47.3768 29.7552
1 56.2661 26.0464 2.15104
1 77.2661 45.07 28.0659
1 67.8813 10.076 9.42056
1 137.2 47.2287 49.9391
1 96.2811 32.612 33.5234
1 49.9794 45.8586 50.0342
1 30.3755 16.5179 2.53832
1 93.7389 48.8129 10.8875
1 45.8315 4.34522 45.476
1 58.9161 11.0171 2.6754
1 74.3502 25.6593 30.4589
1 103.894 47.9553 48.3952
1 169.587 46.4739 41.592
1 144.063 43.2466 38.6834
1 136.693 19.4102 18.5886
1 158.292 23.0907 35.9632
1 121.991 6.14844 31.4278
1 33.9629 35.7628 4.31051
1 48.3668 5.19721 24.185
1 46.291 41.6684 14.747
1 11.9627 4.96749 44.2151
1 187.869 44.6233 7.78031
1 144.453 23.6098 7.70669
1 180.357 39.1569 33.2693
1 55.1835 26.2158 14.8163
1 127.083 8.91178 37.332
1 32.7482 2.46878 49.1559
1 24.4276 22.5042 25.9743
1 56.7041 13.3852 12.4342
1 32.5259 50.0921 30.526
1 14.1248 46.8684 3.9766
1 122.699 38.581 9.84634
1 21.0433 35.1707 20.0654
1 144.699 11.4136 -0.175105
1 86.941 23.8234 19.0869
1 28.0001 33.651 2.98904
1 112.353 35.9156 18.1385
1 89.743 45.973 3.65481
1 45.108 15.679 38.3304
1 71.0564 34.1588 35.4778
1 172.043 28.789 36.7565
1 90.4493 15.8987 47.9161
1 18.2525 40.559 41.9926
1 80.427 32.8147 35.5537
1 126.279 37.1749 3.79723
1 103.54 33.2983 6.95195
1 197.476 41.112 33.8116
1 142.613 43.1759 30.008
1 99.0677 21.9078 41.9699
1 64.0367 19.5324 21.5582
1 139.48 9.47461 45.0278
1 158.3 21.6456 41.6769
1 186.959 49.5019 20.5615
1 130.5 48.2059 13.6575
1 127.133 37.1949 46.7163
1 155.545 37.1594 49.3892
1 118.311 35.1392 6.4302
1 164.097 11.5176 5.20521
1 183.442 9.16783 18.5176
1 147.745 13.9062 41.225
1 194.757 40.8936 35.9371
1 198.717 48.3927 34.2522
1 125.384 40.7657 6.78971
1 199.933 25.634 21.2875
1 82.5009 13.9754 42.6598
1 66.1478 36.6032 42.6806
1 24.3546 10.0332 46.5163
1 100.666 31.7156 47.062
1 23.4952 27.6546 47.8135
1 127.145 19.2909 33.7827
1 29.9233 22.71 12.296
1 52.239 19.1602 19.2846
1 189.767 6.03561 15.1197
1 14.4918 19.4136 34.4939
1 181.262 28.2814 18.3543
1 153.034 18.7438 40.9158
1 69.0427 39.531 45.5199
1 154.023 12.6359 34.7977
1 195.823 32.9766 7.47084
1 188.356 31.6152 18.2759
1 99.5254 49.3188 12.2064
1 114.902 0.983143 0.888942
1 7.01026 26.0774 39.2336
1 158.712 15.9622 17.0624
1 27.4338 39.4858 6.87785
1 131.413 38.5071 48.4977
1 186.768 37.0692 13.0557
1 124.917 3.31916 8.80634
1 38.2226 36.5727 27.9162
1 192.605 20.6708 31.3758
1 66.4021 38.6135 19.1727
1 46.6296 17.0982 39.4275
1 182.293 7.46143 5.42104
1 150.45 29.7037 14.9951
1 94.3329 11.4599 18.3859
1 89.0642 42 9.8861
1 77.327 26.7018 43.0221
1 178.817 38.8259 46.0522
1 20.587 22.866 14.1747
1 18.6924 22.2778 41.1695
1 101.117 28.0669 27.2655
1 93.2265 47.5142 14.6619
1 156.186 44.3295 22.5925
1 32.2335 33.67 19.1419
1 23.9371 9.28271 23.4371
1 137.976 7.54757 4.89215
1 65.9533 11.2617 12.8951
1 74.2464 14.002 7.62808
1 71.9419 37.559 17.0143
1 101.559 42.3944 35.1976
1 17.7762 13.9483 40.7678
1 122.002 4.18656 30.1379
1 17.7589 17.9605 0.85804
1 45.775 33.0997 9.06615
1 152.176 10.2093 38.3307
1 27.7399 20.3567 15.5495
1 179.563 1.66682 2.06474
1 154.64 40.8538 1.79669
1 74.2418 42.6602 12.4143
1 94.245 16.0388 1.24185
1 79.5387 12.8222 39.2362
1 161.878 13.4593 38.4114
1 167.002 25.6935 3.24068
1 98.4007 35.9632 30.6344
1 22.7336 36.8875 6.48637
1 93.9901 16.7978 48.3721
1 32.2804 49.6245 34.6798
1 75.9817 33.7488 3.62962
1 103.175 43.6895 16.5413
1 156.563 41.133 16.7947
1 147.956 20.519 25.6987
1 86.0295 49.7798 47.6154
1 196.415 44.8105 15.1093
1 160.451 16.3293 8.83289
1 81.9697 49.2699 48.6652
1 144.915 49.3083 9.11557
1 159.464 31.7306 10.879
1 45.042 1.38275 43.1825
1 98.6111 37.8519 36.1646
1 171.76 19.5093 16.5571
1 65.1939 -0.123785 22.7909
1 169.707 27.4364 9.32269
1 146.315 28.0622 35.2491
1 144.097 38.0443 19.87
1 105.131 41.0594 49.4591
1 140.069 46.9804 24.3609
1 28.5368 5.48481 14.4813
1 79.6556 17.8836 29.9069
1 39.8603 48.3905 19.4783
1 14.1287 21.2293 49.7331
1 58.8119 18.9328 20.8531
1 21.3452 45.6366 41.7289
1 101.863 6.93011 34.1613
1 60.0456 37.3002 16.0499
1 199.548 18.6272 19.8171
1 146.922 40.6609 29.3171
1 49.2922 3.82662 18.0317
1 198.253 49.0191 42.5559
1 32.4983 14.5271 31.6921
1 145.423 30.887 47.4903
1 20.3737 16.7124 11.0596
1 1.15812 49.7425 4.61663
1 192.401 49.7867 21.7809
1 114.136 10.7899 1.07592
1 152.735 13.9416 17.3412
1 -0.0991544 36.9125 17.8446
1 32.8886 2.77068 36.6904
1 185.507 4.05334 30.1595
1 90.2674 26.3058 6.66214
1 76.194 16.9185 28.2294
1 95.301 3.97126 31.7384
1 180.908 3.63134 43.1536
1 142.12 13.6419 38.9726
1 196.04 29.2205 1.64672
1 180.492 36.007 4.24126
1 84.5363 13.4292 12.0168
1 39.0497 38.1388 17.1379
1 40.0413 9.10686 40.2637
1 136.837 35.7258 0.395108
1 65.2405 12.5104 9.43221
1 122.346 -0.0441157 34.4863
1 74.4387 7.75059 3.49936
1 11.0709 9.42885 31.8112
1 131.485 43.5962 46.5056
1 190.875 1.20718 7.32058
1 130.169 33.2954 25.2678
1 20.7723 1.08086 2.43186
1 0.742067 21.5851 29.3255
1 77.4331 32.7816 13.7704
1 18.9968 37.1349 41.4133
1 12.1987 13.7166 48.8835
1 70.3968 15.1806 44.1619
1 178.161 32.7494 36.828
1 124.668 42.3841 50.0729
1 163.542 13.062 16.1983
1 142.763 27.7645 4.71117
1 168.837 28.9869 28.2717
1 115.196 33.8535 22.6563
1 51.7031 1.73306 2.64909
1 19.2423 41.5696 28.8839
1 157.921 45.1449 2.07149
1 14.0404 26.7195 46.7575
1 189.68 19.4964 17.6306
1 18.7385 4.58691 2.36129
1 140.726 41.2115 24.411
1 147.937 22.7181 31.4854
1 55.2801 4.07391 27.411
1 178.005 7.19751 3.99399
1 194.577 16.9596 20.7186
1 145.807 14.4984 17.3399
1 122.631 24.7301 33.0802
1 92.8248 17.538 30.2278
1 21.9778 31.0906 15.5493
1 29.8075 24.7075 6.7053
1 34.8349 47.7053 32.3495
1 25.8763 31.0372 48.4299
1 143.332 39.2283 15.4637
1 131.069 8.1021 47.8993
1 193.444 11.0675 23.7095
1 44.4977 14.0139 41.7968
1 150.55 20.2717 32.3656
1 36.64 48.1034 9.70114
1 34.4899 44.1533 42.9797
1 19.3278 47.2424 32.8016
1 4.11721 16.3907 21.7765
1 195.378 29.2449 6.95942
1 80.554 41.8041 35.0148
1 179.643 31.5194 41.3001
1 128.665 50.0575 7.22904
1 104.43 4.49843 40.4762
1 0.772717 8.48515 40.8453
1 88.298 26.4415 30.5758
1 196.109 41.4136 39.7784
1 117.971 37.6043 33.1108
1 19.7548 5.99256 8.42916
1 144.47 18.1801 32.1495
1 122.026 27.9478 27.677
1 116.838 3.16899 27.1934
1 70.4542 40.564 6.90221
1 152.443 16.6095 28.2413
1 187.799 14.7226 11.0422
1 27.8728 12.9061 21.6042
1 197.909 16.5139 22.426
1 161.276 22.625 6.34483
1 152.11 3.12965 1.86261
1 142.209 36.6416 11.4764
1 124.111 40.9538 36.2377
1 29.8626 36.3921 28.0226
1 200.523 7.40817 19.7373
1 80.0968 41.5472 7.19387
1 135.947 47.8119 8.86319
1 37.2418 47.7195 7.52068
1 43.8797 43.7817 37.7238
1 70.6968 19.8502 2.89676
1 110.065 33.1288 30.3054
1 102.202 49.5337 8.68792
1 3.31682 42.4505 47.9016
1 180.256 41.6251 30.1353
1 90.7941 38.7964 31.1848
1 7.6326 47.4592 15.5528
1 139.484 43.2056 20.3542
1 86.5461 4.25957 20.8687
1 185.138 23.4051 23.3267
1 4.21654 42.8362 38.5367
1 63.6397 37.2329 49.7727
1 165.372 44.9704 44.8387
1 62.2155 29.2991 28.3352
1 80.993 4.70061 36.2834
1 130.9 29.5612 2.02019
1 151.741 35.827 49.1532
1 194.345 13.2646 10.3322
1 136.478 20.8319 29.0611
1 197.659 16.9307 40.2212
1 29.3731 7.39838 27.1195
1 142.36 35.8448 46.3609
1 193.356 4.28879 7.76897
1 93.6171 2.80809 30.3565
1 37.3459 8.44135 7.30799
1 85.3274 6.50381 31.9644
1 35.623 44.0583 34.1288
1 68.7003 26.3561 7.13821
1 54.0489 32.0234 47.9346
1 180.139 24.6799 28.8848
1 28.6342 28.3394 16.2491
1 126.103 33.1774 20.824
1 172.967 34.2258 48.3869
1 170.1 30.9499 11.4805
1 200.785 0.256759 22.1639
1 195.824 34.3518 2.12594
1 48.427 34.7528 25.3578
1 178.72 13.5306 10.4054
1 189.108 8.71657 11.9408
1 122.562 20.5647 8.22865
1 -0.425507 47.5997 19.1425
1 183.004 39.0625 8.56987
1 91.6421 43.4429 39.261
1 2.67286 10.0089 29.7119
1 196.587 34.1847 41.0781
1 130.575 13.6439 31.7791
1 123.863 25.7598 1.08648
1 73.844 32.4845 19.0952
1 34.0805 25.7267 44.9558
1 135.221 38.6325 18.9032
1 165.496 42.8572 41.4102
1 194.25 1.49826 1.52648
1 180.145 40.4294 44.659
1 60.7443 44.638 15.5441
1 146.659 44.1327 35.1331
1 51.8167 6.76867 11.8179
1 178.408 3.61185 31.7397
1 124.09 22.2057 9.00202
1 3.94813 33.4912 9.42052
1 183.478 30.6938 28.9175
1 196.633 7.51261 30.8626
1 159.954 17.2355 21.6866
1 91.5091 19.3215 49.3382
1 8.12239 18.7498 37.6644
1 10.9864 40.4788 33.4262
1 129.324 1.85554 33.5083
1 176.164 31.5038 33.1237
1 127.961 28.1272 27.9702
1 144.365 19.6483 2.37375
1 138.346 10.5748 33.7369
1 59.5483 20.7464 38.1528
1 29.5116 1.92395 16.1726
1 83.4756 35.8124 14.7374
1 172.128 32.3084 11.8674
1 102.129 0.130656 34.6328
1 111.27 15.9756 20.0118
1 27.9885 -0.179981 21.6442
1 41.4699 11.4579 27.0356
1 52.9535 24.1555 42.176
1 16.1963 25.9289 42.1566
1 98.201 40.8794 20.9901
1 154.806 13.9295 38.9579
1 176.978 11.6571 4.08544
1 81.417 4.81369 17.001
1 35.7605 43.5311 13.0158
1 81.7858 19.0556 39.8206
1 157.385 44.7374 17.4323
1 133.649 9.2634 7.90165
1 57.3951 39.4245 10.7095
1 75.4295 27.32 0.0082373
1 107.824 33.7916 23.6739
1 156.755 45.8471 26.2649
1 97.5087 42.6773 22.3376
1 182.491 24.8975 28.5835
1 171.082 25.4746 13.073
1 17.5622 33.6321 32.79
1 113.344 42.8709 5.52665
1 180.048 32.4555 24.7041
1 143.144 5.86669 17.092
1 85.7961 3.86806 46.5149
1 152.214 29.2729 37.444
1 113.475 0.772578 13.6045
1 104.199 48.5146 11.8856
1 96.6284 11.5824 5.1738
1 157.194 16.7968 7.01387
1 190.851 7.40627 6.65199
1 103.548 45.374 32.6616
1 95.5289 13.5851 5.82501
1 166.338 11.4174 21.827
1 162.628 11.1559 38.2757
1 83.3623 18.5846 32.9112
1 75.9087 17.978 10.2002
1 148.294 2.9711 2.76981
1 95.6986 11.4315 41.9273
1 88.2868 46.7111 50.1013
1 194.233 36.8538 9.61763
1 66.8154 20.7689 43.9885
1 193.026 35.2809 19.3345
1 62.3028 45.225 49.1081
1 54.8598 47.121 28.7765
1 58.659 43.7035 37.2133
1 34.5961 2.99491 29.6952
1 146.69 45.2208 26.486
1 16.269 2.91324 7.47715
1 162.484 12.2234 45.5627
1 25.5055 15.6043 26.6123
1 51.5504 25.3701 35.1494
1 106.14 12.4661 27.7255
1 175.478 13.484 33.1494
1 50.6147 19.8206 36.9814
1 47.9876 33.8116 33.2384
1 69.637 33.8467 21.8735
1 42.1321 36.7527 2.81515
1 53.8759 47.5232 42.218
1 80.4326 22.2348 0.773898
1 8.89252 3.9576 31.8489
1 109.659 29.7343 12.2914
1 168.018 13.2265 21.2476
1 165.359 29.8159 13.9602
1 14.6466 33.7805 47.2176
1 87.8276 32.4159 14.4761
1 146.241 14.9357 39.7063
1 143.348 39.4574 27.2295
1 40.9023 3.32219 34.6359
1 141.731 50.1378 40.4582
1 26.271 28.1485 -0.0490181
1 115.773 2.44633 41.7743
1 88.6269 30.4325 30.2454
1 123.098 24.2249 36.9433
1 31.7691 15.3956 9.84248
1 72.2113 9.1178 5.85397
1 195.373 49.3747 34.7194
1 50.3171 -0.178013 38.4234
1 52.5672 8.84595 6.59443
1 42.4503 47.1748 49.6364
1 34.2996 40.4869 15.0296
1 122.851 13.2689 10.7658
1 59.6052 1.5791 25.966
1 128.603 3.07938 12.1266
1 174.899 39.712 40.6136
1 66.8391 9.1272 41.833
1 47.6208 26.9477 40.4094
1 72.5708 16.422 21.4711
1 76.3944 29.5628 34.8243
1 192.621 21.2619 1.80538
1 186.999 20.2489 23.6029
1 120.691 30.9865 34.7023
1 8.88752 1.60058 5.63729
1 81.814 13.1691 24.4289
1 137.554 32.3218 37.3863
1 37.7441 12.8906 29.3259
1 21.0803 43.8862 7.82312
1 155.349 30.9051 12.834
1 139.656 13.9318 2.83012
1 107.4 5.43096 21.2854
1 139.334 13.759 39.0948
1 140.26 42.0598 44.3901
1 32.4063 0.407183 15.0385
1 77.5568 21.3445 14.5875
1 47.0536 48.6471 45.9768
1 135.493 31.1813 8.00174
1 38.0933 46.376 10.6643
1 23.5065 41.8699 35.4907
1 118.348 11.7024 5.683
1 54.3591 9.60011 25.6927
1 147.917 11.5902 5.02044
1 136.11 28.3823 42.1851
1 97.8756 4.06373 28.3953
1 118.664 29.6233 15.949
1 68.0462 46.1943 39.7725
1 65.2764 40.7619 36.0053
1 65.6924 43.2583 10.6367
1 34.298 19.7536 31.3693
1 55.3922 12.9122 10.4918
1 82.0647 5.5129 23.381
1 101.201 6.79872 39.9323
1 62.3574 39.5146 8.42211
1 188.385 27.2549 31.9889
1 25.3659 3.3564 43.6722
1 164.229 2.27095 36.9473
1 125.607 8.08989 18.896
1 37.8511 49.4498 16.4184
1 78.4316 14.8513 38.8489
1 44.5407 30.8761 26.9409
1 83.8574 10.5633 31.2151
1 10.3096 26.5347 40.8808
1 68.7791 14.9861 26.7989
1 193.595 27.9442 36.1788
1 40.0479 12.3432 42.813
1 136.552 43.246 8.85626
1 153.676 40.0609 47.6644
1 149.344 9.45038 40.7145
1 83.7731 38.5635 32.0622
1 12.3186 11.296 10.7517
1 141.034 37.3361 29.3465
1 10.1575 37.3083 9.76668
1 184.712 46.8544 45.226
1 68.9437 28.6245 17.4987
1 108.073 8.79608 19.1899
1 31.1917 11.2618 38.7582
1 27.3469 47.8524 29.0024
1 150.139 48.4639 29.551
1 46.7591 15.474 46.8878
1 192.623 29.9343 3.84657
1 40.1361 31.1377 35.227
1 116.75 39.6404 40.8855
1 62.77 -0.192484 43.031
1 101.037 21.1674 2.5693
1 134.381 12.8039 18.3985
1 182.499 32.6558 7.88732
1 69.6723 3.68982 10.8687
1 102.841 38.003 43.0975
1 14.7065 37.9871 24.4549
1 181.456 45.4523 17.4419
1 115.022 27.8303 21.4985
1 157.818 35.5407 6.93186
1 67.6789 40.6497 9.00581