102277
Atoms. Timestep: 6001491
1 166.476 29.9197 23.3627
1 10.7405 25.3328 32.2387
1 26.0673 45.1432 4.60424
1 253.433 40.7005 9.67195
1 78.6604 1.98936 33.1623
1 177.389 32.1497 4.23032
1 166.49 46.6705 47.5252
1 122.668 23.0795 4.38978
1 564.966 21.6045 42.8666
1 819.999 21.0599 7.56773
1 155.853 28.2682 12.5024
1 805.096 26.8314 31.8694
1 506.901 13.208 22.5907
1 581.927 8.52806 45.6229
1 3.5708 37.0941 25.0802
1 557.171 29.382 22.2064
1 196.657 28.641 13.951
1 141.413 24.1948 26.0157
1 724.946 0.104441 37.222
1 309.453 7.93603 24.416
1 317.861 5.65892 11.2767
1 436.892 36.23 36.176
1 581.551 27.3861 11.6895
1 709.254 42.2165 41.4086
1 103.835 48.3152 15.4885
1 63.2788 13.9704 18.5421
1 694.937 27.3587 49.3562
1 193.07 24.2784 5.61199
1 629.058 21.9188 9.3747
1 278.891 48.6978 33.177
1 27.4804 44.6376 -0.223555
1 312.071 45.1361 47.2737
1 133.187 15.0088 18.6912
1 388.84 18.1358 1.01748
1 257.017 15.8652 32.881
1 492.808 1.52684 22.6066
1 748.517 21.3327 17.1913
1 437.838 23.7041 1.40578
1 258.789 44.5548 44.5122
1 286.708 22.3782 5.23877
1 734.905 42.1271 34.2799
1 327.841 15.77 44.4299
1 706.113 3.97681 36.802
1 468.848 47.9472 9.68733
1 30.268 26.7606 40.7931
1 221.245 16.5736 35.5856
1 126.486 17.9487 12.9969
1 161.775 15.363 34.5522
1 94.6523 24.6313 42.4819
1 557.308 22.5733 12.1177
1 703.908 12.4244 27.2439
1 64.4584 19.9368 0.299711
1 113.507 16.3438 9.54474
1 829.475 6.80924 5.4304
1 181.152 5.56173 32.2819
1 37.6204 36.4364 49.6166
1 204.028 3.56953 10.6966
1 763.403 22.7189 26.5305
1 185.605 0.941249 5.08042
1 329.544 23.316 45.5738
1 331.788 0.075679 23.4504
1 641.526 39.3758 26.9749
1 108.865 19.3722 40.9068
1 516.444 40.9728 46.5738
1 832.813 5.39666 5.8785
1 240.142 43.9373 1.71752
1 438.161 33.4876 4.38883
1 450.797 45.8468 19.6714
1 380.461 18.4281 42.0089
1 287.03 50.1858 22.688
1 223.424 22.9967 9.99529
1 128.62 27.2713 10.3166
1 812.076 32.3339 27.7252
1 232.484 13.7908 23.396
1 768.939 30.0609 4.75235
1 36.3398 38.9539 42.3279
1 432.192 22.6567 22.4389
1 602.922 2.2575 4.37912
1 367.859 47.7421 35.7512
1 609.274 14.0649 11.6451
1 218.364 39.536 27.2535
1 238.512 28.4096 20.5324
1 722.274 2.09729 48.0157
1 92.1452 37.5587 38.6912
1 184.719 28.5199 14.1675
1 722.967 44.3839 6.33742
1 690.508 0.362524 48.2251
1 0.401364 34.953 28.5766
1 334.14 31.5722 6.7146
1 776.223 26.8911 22.3914
1 757.887 18.8761 24.5897
1 285.746 27.7229 18.2834
1 802.408 4.21729 26.9904
1 266.668 28.0835 13.5787
1 746.594 15.0911 34.3283
1 351.88 4.25836 22.5321
1 454.628 47.4311 9.34503
1 582.917 11.393 20.7959
1 464.168 30.4323 35.1685
1 158.692 0.836136 9.26736
1 120.584 42.8118 37.3316
1 351.918 24.2733 6.22024
1 582.657 21.8014 46.1048
1 620.617 21.7061 27.8116
1 312.126 41.702 20.3439
1 174.814 5.94152 36.6134
1 641.553 32.4813 23.6192
1 34.1795 1.37742 32.3469
1 508.615 18.4905 10.012
1 91.3197 23.1639 35.2816
1 285.938 43.7596 26.7058
1 24.6873 1.59744 2.97921
1 493.121 49.5662 45.2884
1 562.027 20.2593 5.74606
1 357.437 45.1799 45.652
1 782.096 27.9224 28.8602
1 541.361 17.7057 47.8217
1 577.811 40.17 26.8185
1 649.782 28.3722 36.6781
1 98.5908 4.88207 1.59926
1 107.719 28.527 42.1057
1 102.612 41.7891 13.383
1 804.72 17.7457 13.0238
1 95.1511 25.4984 3.33383
1 504.981 35.6427 20.2188
1 824.067 1.13334 3.79278
1 162.401 22.9375 9.71065
1 304.522 36.5827 29.1969
1 522.292 46.9266 14.8724
1 366.494 7.2564 43.0679
1 701.107 7.22419 27.9392
1 347.053 16.0957 12.8572
1 660.83 19.8382 5.98732
1 551.032 4.09866 22.8176
1 99.4238 18.0567 29.411
1 545.79 26.239 40.5202
1 327.7 11.1772 27.9062
1 365.914 21.9707 40.3582
1 638.952 4.43382 0.190943
1 149.668 41.3237 1.02536
1 14.1706 41.0014 34.2909
1 244.263 2.59175 23.0318
1 47.3371 48.0176 8.43172
1 211.542 18.4357 24.2454
1 307.848 13.5821 28.8301
1 715.082 17.5401 23.5931
1 85.4442 41.6156 5.23302
1 757.768 36.1936 47.0793
1 66.0065 33.6387 49.3755
1 424.286 45.9188 23.8032
1 27.9232 44.0002 27.8468
1 547.898 27.9959 35.5923
1 342.175 35.1018 36.5902
1 581.96 40.0035 20.985
1 554.636 2.92289 33.8594
1 664.97 17.6782 44.2091
1 254.577 12.5844 22.4141
1 60.4525 17.382 43.9489
1 172.951 13.4049 3.96582
1 684.445 30.2993 23.789
1 490.935 17.8092 30.3111
1 664.456 31.8567 42.1083
1 83.0649 9.50892 18.4826
1 68.7339 22.6331 24.0815
1 27.4705 21.1615 5.25897
1 503.827 0.37303 9.61668
1 366.987 49.2465 31.3546
1 698.193 44.2411 29.391
1 400.075 16.8537 14.8102
1 773.102 20.0679 31.1986
1 137.671 19.4911 31.6673
1 561.3 16.4477 10.464
1 224.471 24.2077 8.17571
1 495.756 46.836 23.4355
1 31.2251 22.5526 27.5474
1 392.93 19.9937 46.4577
1 236.904 13.2936 30.4558
1 450.753 31.57 45.6082
1 398.475 6.7794 35.143
1 766.628 27.7496 16.3373
1 788.588 29.0668 46.0232
1 124.934 0.629323 41.1512
1 158.219 33.3805 47.1255
1 101.486 29.0217 31.9316
1 164.5 20.8622 14.6618
1 471.937 16.9076 5.1856
1 575.724 44.1036 15.2642
1 35.3432 15.3305 42.9827
1 319.534 15.5234 48.1432
1 246.617 28.3565 42.5266
1 794.243 1.12009 20.506
1 596.379 13.7745 7.65326
1 498.754 3.95741 17.1647
1 4.47682 5.72274 6.47597
1 368.595 19.9143 14.5932
1 589.815 19.2009 31.4921
1 721.653 8.10544 45.4037
1 334.821 30.4819 32.693
1 808.385 39.0715 42.9866
1 220.053 8.44143 38.9413
1 617.831 46.2112 20.3248
1 0.138455 16.4789 37.1759
1 759.027 1.98331 5.32626
1 788.021 17.0753 1.99593
1 124.237 47.7426 50.0101
1 206.826 33.405 14.8503
1 468.953 32.2102 28.1834
1 769.729 19.1338 31.5174
1 391.434 1.93858 27.2405
1 528.329 -0.160186 4.73849
1 622.088 6.14031 33.4636
1 622.419 12.1518 29.8876
1 426.174 49.3536 25.6245
1 570.631 35.4275 28.6501
1 599.693 10.4944 12.6059
1 294.735 5.08987 14.0711
1 366.174 45.4305 12.5118
1 25.9081 22.3394 11.1247
1 542.377 15.4731 19.192
1 492.816 20.0396 9.41402
1 248.091 30.2904 29.4223
1 381.95 8.90553 48.4166
1 158.396 9.93966 30.1137
1 440.61 46.4585 26.8382
1 232.132 37.2204 41.5337
1 80.3332 5.68832 42.8887
1 318.075 17.7965 25.2615
1 388.95 45.565 15.8191
1 666.949 11.0761 1.16503
1 250.455 3.29256 1.69905
1 518.731 26.4317 9.9167
1 15.7281 2.0081 21.3508
1 414.044 41.9579 30.372
1 438.869 12.0531 0.381137
1 185.321 1.53023 13.9575
1 727.377 10.3188 27.2333
1 782.818 17.4453 10.4187
1 795.115 26.3778 14.327
1 479.651 49.2225 21.4632
1 235.976 8.81941 11.5254
1 831.89 1.34877 23.8185
1 216.72 23.4187 25.695
1 823.82 33.598 24.538
1 199.27 12.2135 6.5084
1 815.652 38.825 19.3476
1 661.875 33.1616 36.2446
1 494.029 16.6215 31.9729
1 404.665 32.9598 0.542633
1 407.698 10.1172 26.7
1 514.507 16.0338 7.51607
1 467.925 0.830048 1.3029
1 9.66607 47.7302 49.1835
1 132.273 34.8183 29.132
1 786.874 39.0122 6.94619
1 831.957 25.3647 30.5103
1 672.034 37.4087 43.3378
1 474.171 39.2127 14.798
1 350.245 9.63882 13.6175
1 406.245 16.1089 32.0855
1 615.87 13.4814 46.8287
1 411.602 42.0764 37.7733
1 438.302 4.57772 20.1885
1 135.696 20.0897 10.4408
1 6.17734 29.203 43.1397
1 693.761 40.8952 24.7491
1 516.482 23.1747 10.0095
1 735.705 15.4616 48.9021
1 638.607 8.08717 0.70139
1 41.2129 50.133 7.00345
1 343.839 14.2338 14.1053
1 193.894 10.612 6.93213
1 651.704 11.1831 49.4389
1 24.7572 21.9904 24.9156
1 544.204 46.7254 48.5356
1 753.502 10.9587 28.7345
1 492.709 35.2194 7.58535
1 132.763 41.4198 24.9696
1 593.079 14.7595 8.93369
1 281.658 48.6051 15.1674
1 428.226 11.1 22.1093
1 582.868 7.48039 3.73452
1 547.337 40.0215 46.0253
1 767.028 9.28603 0.541517
1 485.353 10.5331 45.4325
1 610.007 40.5885 45.8569
1 98.5109 18.0904 33.3302
1 488.334 48.4763 30.4337
1 160.926 22.9327 26.3585
1 768.916 22.1817 8.11008
1 790.164 36.4051 35.603
1 830.389 49.5998 14.8822
1 566.749 50.0943 29.6053
1 814.954 17.3763 32.9701
1 -0.966102 36.5072 25.4112
1 29.8107 46.2553 35.5378
1 364.82 43.6485 27.5775
1 149.085 7.06327 7.79634
1 28.0649 15.2242 15.352
1 767.04 2.54429 25.5022
1 695.656 14.6119 46.0164
1 556.631 10.0063 44.2652
1 5.78611 45.7938 24.7048
1 299.912 45.9296 32.9547
1 715.057 23.415 10.2977
1 665.072 43.155 4.02606
1 716.968 23.9778 35.8827
1 828.163 39.7965 16.9788
1 813.712 2.5754 44.416
1 755.286 9.43264 13.4443
1 818.724 4.36967 41.0345
1 392.324 43.4381 43.3739
1 315.505 35.0156 36.605
1 693.09 28.0599 7.87091
1 558.761 21.1478 9.00794
1 280.283 24.2258 32.8324
1 727.927 28.8188 7.02696
1 823.361 36.9899 30.8479
1 404.576 4.22407 30.5171
1 523.978 37.3185 47.9305
1 627.597 24.9913 17.3642
1 474.968 39.4607 1.61223
1 829.963 40.4783 3.75207
1 831.396 47.7683 46.2778
1 136.217 1.85576 21.6642
1 155.578 7.69756 17.2451
1 806.726 17.8023 39.5375
1 201.861 25.6028 44.178
1 441.453 9.51924 37.3965
1 325.509 0.946109 1.16066
1 8.94834 24.3196 45.9875
1 357.414 17.4953 12.8612
1 48.5812 5.3903 37.6383
1 125.812 23.1713 42.0512
1 605.561 7.30961 36.5569
1 410.672 15.0856 15.6175
1 666.745 7.07453 25.6766
1 687.065 46.1053 43.3362
1 514.903 39.8137 5.23347
1 723.323 17.0003 23.6539
1 186.568 23.8719 48.1768
1 626.676 24.8295 10.5169
1 569.092 40.8496 47.6607
1 187.83 42.3767 38.4123
1 59.0307 45.8647 12.4789
1 606.88 5.51517 45.2511
1 644.179 39.8457 40.3882
1 398.595 2.76991 43.4406
1 94.9648 40.6478 5.9582
1 143.467 12.8117 33.3484
1 469.635 32.9534 48.888
1 735.039 3.93539 18.4964
1 691.555 9.03058 34.7571
1 457.163 24.3715 1.15192
1 604.369 13.879 8.02658
1 289.405 -0.0206586 46.4205
1 384.237 33.8798 9.24557
1 577.906 25.1351 38.3456
1 767.457 39.0732 7.38712
1 217.655 11.1063 6.75948
1 486.815 38.0745 10.1471
1 780.945 26.53 40.2113
1 -1.02823 41.8202 29.3152
1 267.21 9.94839 27.4691
1 542.353 1.40102 38.5121
1 338.155 8.25844 4.5808
1 603.632 0.816861 9.43043
1 289.633 2.78983 29.5761
1 781.914 43.4741 32.6272
1 643.651 22.733 8.76118
1 582.731 15.7203 0.821471
1 802.735 24.3574 18.6347
1 381.233 26.1855 19.3288
1 335.496 0.0094488 11.2712
1 240.593 34.7382 28.1473
1 223.464 47.8573 42.0034
1 699.584 17.3935 0.709816
1 759.599 40.378 7.96039
1 711.178 29.3514 28.2425
1 134.043 43.8134 37.7348
1 691.998 32.6242 11.7159
1 714.711 29.2487 45.1311
1 143.513 41.5442 41.3526
1 365.763 18.0293 49.5736
1 238.045 44.7727 4.8923
1 443.554 5.14241 27.7749
1 627.809 24.9781 46.321
1 760.255 11.724 29.9984
1 197.083 42.9454 42.2021
1 644.995 16.3917 23.1233
1 616.979 8.65338 35.7305
1 464.663 26.3695 19.9672
1 764.966 48.28 37.8066
1 215.07 10.7977 3.93624
1 689.46 6.16495 24.4041
1 767.377 35.9145 31.6272
1 809.131 22.2369 16.7088
1 739.289 35.537 41.9519
1 511.73 19.727 18.5426
1 456.204 25.722 45.7528
1 264.485 17.8678 28.7524
1 355.652 12.6623 10.5926
1 210.004 20.9885 47.2096
1 -1.51756 40.7986 10.3485
1 170.466 42.5422 20.2701
1 528.509 27.1301 18.7456
1 342.129 46.7102 22.865
1 358.465 1.85947 42.1978
1 222.064 0.790782 15.4114
1 648.083 10.1549 26.2177
1 114.552 22.9598 26.5867
1 716.687 18.9406 10.1813
1 726.56 16.4681 32.3384
1 76.8567 46.7304 43.3623
1 334.962 43.2441 0.486885
1 758.684 30.3832 43.8656
1 299.105 5.1866 10.547
1 374.431 4.78022 27.0611
1 407.945 19.5924 15.1654
1 683.704 12.6361 25.8
1 514.788 42.6258 13.3808
1 404.33 39.0339 2.99326
1 316.357 2.05257 38.5153
1 790.366 32.7769 33.1731
1 438.159 22.3055 34.3409
1 725.743 2.24687 27.5392
1 462.535 9.43692 18.721
1 417.131 42.8463 27.4024
1 112.014 10.3068 33.9352
1 407.255 15.8824 45.7939
1 585.069 38.3451 9.93321
1 553.96 14.3134 29.9892
1 474.714 28.8452 26.6546
1 91.3916 21.0363 32.2618
1 510.742 10.5931 18.7779
1 642.253 -0.000754967 31.3215
1 738.993 7.57313 28.4955
1 680.967 42.6498 41.2313
1 223.77 12.5904 26.4043
1 514.166 0.951239 35.7151
1 676.438 33.4813 17.1814
1 200.247 50.2227 29.1604
1 612.657 0.711316 34.5609
1 703.266 42.4108 29.1075
1 581.96 49.7315 0.351063
1 406.118 40.9868 11.7095
1 313.053 2.58277 28.2768
1 651.681 25.6747 42.137
1 588.475 20.838 15.6422
1 670.785 15.1118 28.9506
1 195.511 47.4434 45.3071
1 783.585 43.0317 41.7374
1 315.624 10.4516 2.2576
1 589.964 33.5763 46.6149
1 291.263 14.6939 27.4188
1 549.163 22.5346 32.8585
1 125.699 47.152 25.8829
1 832.913 44.7045 48.1056
1 470.876 25.0184 18.353
1 555.589 34.4628 42.1394
1 455.403 20.5305 39.3819
1 686.075 14.8431 41.4462
1 51.689 11.6711 44.8903
1 491.639 1.11983 42.2292
1 829.477 37.5549 47.9611
1 142.685 12.8512 17.4133
1 819.566 10.5822 27.1383
1 403.161 27.9014 38.7079
1 485.656 28.5983 31.5931
1 47.1314 36.9628 23.6024
1 363.918 34.6628 32.9509
1 617.352 14.6637 7.73853
1 527.173 49.7693 18.8335
1 128.135 43.4504 38.4575
1 832.817 29.7937 19.3927
1 772.613 39.5249 10.3807
1 833.561 8.18527 42.8601
1 137.873 25.2449 3.33549
1 111.181 21.5256 38.0873
1 207.656 15.5529 11.7209
1 462.777 7.97134 14.9855
1 29.5872 48.7801 9.9302
1 250.83 17.2472 12.2368
1 210.75 32.1567 16.3721
1 27.4945 46.4273 23.6015
1 737.019 40.5007 9.88282
1 664.065 47.3012 37.7996
1 424.255 47.8181 22.4668
1 401.074 22.2686 3.44316
1 522.047 46.324 37.5216
1 811.228 13.9197 10.5184
1 553.703 26.8961 16.5492
1 408.046 48.0656 45.2527
1 367.045 13.1116 11.1379
1 23.4942 12.5111 28.3149
1 224.738 19.6089 19.5387
1 102.755 35.7097 42.3862
1 795.35 15.0512 27.2004
1 563.807 34.8964 42.9989
1 133.293 7.76404 15.8746
1 447.274 40.1612 16.7864
1 225.022 12.2628 46.2918
1 752.862 23.1179 47.7612
1 643.118 -0.219178 44.7875
1 499.419 20.7981 1.86771
1 277.223 0.736317 23.7308
1 603.578 1.10104 0.808838
1 252.611 1.18294 26.0947
1 319.202 41.5638 17.7131
1 171.024 49.5189 16.1917
1 175.289 14.0338 10.5918
1 595.15 48.0119 36.7712
1 667.498 6.40603 13.6016
1 428.821 32.3463 46.1742
1 669.737 8.62271 40.301
1 303.46 46.1869 31.6613
1 483.153 2.83586 23.6993
1 828.274 42.3035 42.4183
1 478.912 4.00984 36.5559
1 448.164 14.2412 32.4945
1 796.29 34.7122 34.5797
1 148.463 41.0864 4.49046
1 661.899 34.9676 3.3099
1 170.197 2.15288 14.1152
1 611.791 6.29572 10.8334
1 112.794 31.9557 39.8153
1 235.333 18.6669 42.2164
1 300.578 13.8962 5.89516
1 345.787 35.1494 45.0892
1 591.662 26.1362 6.80409
1 210.331 26.4941 29.4557
1 749.174 29.6838 20.623
1 361.148 4.54917 34.4811
1 26.5775 8.31975 3.00317
1 169.838 37.4907 37.4042
1 271.957 40.0587 11.3009
1 82.7545 35.3907 25.1548
1 804.05 22.3035 7.5235
1 459.595 8.33473 32.7506
1 385.868 33.2704 19.7547
1 576.208 46.1897 11.7665
1 814.258 31.937 24.4501
1 468.001 48.9609 4.47873
1 695.241 44.3216 38.4521
1 395.593 2.56571 20.0073
1 667.171 11.1056 43.6926
1 341.458 40.6946 19.0354
1 705.83 28.3474 34.6427
1 180.411 15.1211 7.801
1 133.241 4.41537 39.7353
1 32.1015 28.5382 3.91733
1 670.997 9.57873 26.4662
1 438.436 38.7383 16.0386
1 244.573 18.5257 5.16576
1 127.723 45.8727 44.4296
1 510.351 32.09 16.475
1 164.455 11.5319 22.4622
1 154.569 14.3954 30.4761
1 516.144 41.9213 39.7578
1 206.459 49.8582 49.5628
1 433.9 39.6038 25.2415
1 165.787 1.92009 18.4759
1 564.617 11.9947 25.5416
1 138.735 36.7812 45.5168
1 795.815 45.957 19.3268
1 64.6046 48.1505 17.6409
1 749.489 5.50419 15.3308
1 262.857 50.1325 16.6173
1 551.585 10.3855 37.9813
1 452.7 34.8671 23.6552
1 535.267 19.262 37.7725
1 495.909 21.254 6.6855
1 594.288 30.2513 34.3059
1 535.053 12.9838 43.684
1 553.756 12.8816 28.1943
1 392.084 44.2387 37.5416
1 31.9043 29.5434 42.0023
1 629.093 40.8403 24.8355
1 800.94 12.5421 44.971
1 247.29 15.8805 19.4343
1 97.8474 27.0013 25.3909
1 29.8704 36.8297 3.20447
1 42.5416 15.7287 13.811
1 661.713 5.58358 31.2896
1 770.971 12.762 21.5416
1 309.32 25.7819 22.2003
1 369.942 23.609 36.9566
1 592.036 16.0725 42.1468
1 261.93 48.6662 14.8014
1 325.189 10.9594 23.1871
1 578.371 20.3561 30.1803
1 163.147 9.19875 19.6067
1 232.587 25.3785 40.1832
1 200.819 13.4691 38.9955
1 184.782 31.6814 37.3035
1 378.057 41.0967 1.85916
1 562.374 0.243748 6.68089
1 734.239 35.6728 29.826
1 568.786 11.0886 34.4907
1 830.11 11.2691 28.5836
1 165.407 11.1907 24.6843
1 443.726 -0.168544 3.72617
1 799.402 30.8616 8.84827
1 431.076 4.29916 8.27716
1 633.952 31.8483 28.2211
1 126.888 42.4647 1.62304
1 454.345 2.48334 30.8853
1 613.284 41.961 46.6109
1 680.505 20.6704 14.6464
1 635.088 21.2157 19.8804
1 100.672 38.6145 8.75324
1 118.45 11.7208 35.0012
1 320.405 34.9504 50.2042
1 174.098 4.94136 17.7948
1 749.975 45.6182 48.8414
1 502.281 5.99264 3.24934
1 643.817 34.7078 18.8578
1 793.301 49.9021 49.1914
1 260.041 0.552725 25.0623
1 32.0064 0.556886 28.9702
1 442.472 40.7102 17.2866
1 787.438 49.9252 3.3122
1 661.691 10.3159 48.0264
1 182.473 3.57732 37.7074
1 386.717 6.8083 15.6863
1 170.675 17.8134 14.4704
1 406.75 14.6 14.9207
1 141.484 13.7698 46.8427
1 200.754 43.1085 12.8911
1 395.686 9.71761 6.33896
1 95.2913 46.3642 22.6332
1 335.731 27.5912 38.452
1 689.382 42.8234 13.0224
1 519.488 6.8649 5.14281
1 830.814 46.629 31.8262
1 712.431 47.78 10.3173
1 758.483 21.9248 40.661
1 432.337 33.9089 46.6787
1 424.043 45.398 32.5132
1 587.172 32.8497 8.73083
1 171.638 33.1033 47.8379
1 765.213 35.9682 25.4441
1 424.987 9.54876 23.2492
1 715.989 6.18056 39.8772
1 393.399 44.7074 12.3068
1 789.179 3.74208 30.7453
1 210.1 1.08799 38.1418
1 489.146 0.512648 19.7749
1 658.984 16.9614 40.0597
1 442.533 25.8738 1.12544
1 510.735 15.2578 22.7623
1 509.943 24.2937 8.8129
1 285.394 -0.0438736 21.0865
1 52.7247 19.0564 31.3527
1 380.38 48.139 13.1672
1 232.304 5.85423 0.594384
1 681.879 13.5165 22.0258
1 525.017 13.3349 3.85332
1 594.208 45.8817 4.70944
1 239.806 2.85863 10.6109
1 27.4186 43.6871 48.0022
1 697.635 44.4307 38.4522
1 177.991 37.1332 35.3088
1 195.702 19.354 28.834
1 41.5153 25.5125 38.015
1 712.354 12.6376 9.17992
1 355.655 1.53008 39.3829
1 387.603 10.1687 45.1445
1 86.6459 10.9574 18.2662
1 329.31 34.9539 22.6701
1 805.501 42.4946 19.8023
1 536.498 10.4704 16.4549
1 15.102 15.0712 40.3005
1 775.497 22.0988 6.86301
1 266.558 17.4905 42.8359
1 340.902 47.8794 7.95371
1 304.046 1.95726 35.3165
1 475.051 20.6332 8.11259
1 336.876 12.1021 45.4875
1 271.547 13.0359 47.7833
1 294.8 24.1729 47.0102
1 470.595 28.8285 42.9012
1 164.918 36.2521 3.14531
1 377.127 30.8336 46.6323
1 425.463 28.4963 5.2109
1 200.966 41.2098 14.3046
1 697.238 27.5576 49.2423
1 614.053 16.6463 30.0396
1 565.763 11.3325 1.60581
1 522.316 30.706 4.04388
1 572.456 8.93262 3.73684
1 88.8631 5.87675 8.5835
1 125.745 44.2339 11.7855
1 265.776 44.2621 5.7643
1 96.5033 47.0052 18.6898
1 811.103 13.529 37.6194
1 695.587 23.4299 3.93221
1 787.74 13.9037 6.43512
1 198.861 16.9129 21.7134
1 644.786 20.5708 8.49778
1 140.876 36.9256 33.2515
1 34.0954 36.388 48.2291
1 154.691 39.0324 15.2434
1 33.3279 26.1977 48.3317
1 187.118 10.0818 34.6141
1 541.519 26.9299 2.75644
1 32.3947 14.5094 48.0216
1 775.136 21.5921 17.8559
1 338.929 34.9191 10.4017
1 183.979 5.85794 41.4599
1 437.123 43.0248 21.4502
1 405.172 45.0014 8.22148
1 211.274 20.7083 43.9214
1 358.975 6.78438 19.7529
1 809.806 39.7407 38.213
1 515.409 43.1077 50.0208
1 173.44 24.8444 30.0619
1 265.062 32.6862 28.4431
1 694.729 21.4128 38.5142
1 406.993 49.5825 16.4385
1 801.685 37.5839 26.3654
1 690.443 19.9183 41.9937
1 609.413 25.1799 41.6542
1 125.81 9.91103 49.116
1 635.82 8.7714 12.3446
1 726.016 36.6527 14.243
1 50.0033 8.14916 44.1358
1 566.282 10.3725 17.9962
1 528.072 10.1397 38.5998
1 549.283 3.74424 1.62979
1 328.952 38.3375 1.05342
1 600.025 11.2145 41.0446
1 818.745 16.1214 42.3087
1 639.71 3.37233 39.2955
1 80.0245 7.2791 22.0857
1 690.569 20.7514 21.9237
1 450.134 24.4686 32.2198
1 35.833 40.3586 10.3847
1 303.136 41.348 1.67525
1 500.616 20.7488 32.0197
1 188.19 8.22368 19.8728
1 645.292 13.5828 9.93091
1 751.473 27.0657 15.2294
1 563.704 7.27353 19.1826
1 201.826 42.9384 42.3617
1 191.052 42.0827 10.5502
1 91.6804 2.23679 29.5102
1 722.781 41.1389 47.225
1 747.36 41.2314 22.8441
1 537.602 39.867 35.0547
1 305.666 18.8385 25.938
1 516.202 44.8407 29.7003
1 590.836 6.40712 44.192
1 59.5675 28.4974 20.564
1 444.306 18.7062 37.6174
1 681.134 1.31032 1.26658
1 42.6416 26.5021 18.8104
1 709.212 47.2657 3.82327
1 125.425 14.3332 12.9797
1 553.233 37.4784 39.1303
1 770.258 30.3247 22.4193
1 518.533 19.7702 25.3155
1 173.176 19.0684 23.6116
1 236.764 8.36066 7.52506
1 272.453 50.1282 3.67225
1 151.777 3.04877 32.5645
1 143.364 42.217 46.8386
1 658.468 23.132 44.2209
1 653.378 3.04745 31.2224
1 346.218 33.2902 36.0282
1 448.64 13.0661 1.00897
1 740.38 19.6904 23.0458
1 154.92 6.59676 15.2158
1 226.953 32.3274 40.5944
1 583.167 11.2017 14.218
1 432.402 30.4113 40.0886
1 631.606 16.5935 0.379769
1 129.638 30.2672 21.7246
1 197.395 41.5305 32.4899
1 583.994 45.4877 14.478
1 351.424 16.92 46.2621
1 417.588 20.5555 19.6742
1 407.408 16.7835 41.9608
1 333.478 17.123 47.1887
1 163.162 38.5443 46.1685
1 646.462 10.3835 34.234
1 60.6924 35.198 15.1289
1 119.018 13.067 47.377
1 667.385 17.103 29.4809
1 128.011 7.85349 37.8083
1 817.106 7.1617 43.9385
1 723.171 -0.08989 12.4704
1 227.972 49.3612 20.4164
1 244.066 20.1888 35.4722
1 184.838 29.2531 33.9378
1 552.55 25.6639 33.3671
1 0.339208 -0.0137285 15.7939
1 491.08 26.233 41.7203
1 286.701 17.327 15.6235
1 453.715 22.4259 4.41743
1 267.646 37.5056 18.9343
1 373.961 46.9313 36.8481
1 427.873 36.9286 0.824937
1 518.242 33.3125 27.4499
1 554.608 38.3417 26.9209
1 477.969 27.3377 1.23143
1 740.798 46.4026 40.4131
1 587.876 21.3594 21.5265
1 483.866 42.2899 10.9508
1 632.287 9.45741 15.4889
1 700.979 -0.121902 37.3741
1 90.5546 40.9633 36.8033
1 455.305 21.0691 1.50828
1 766.96 27.009 41.4306
1 233.827 35.004 14.5426
1 734.302 42.653 49.511
1 461.414 37.3698 37.0553
1 621.856 34.2229 18.3915
1 346.949 18.9511 40.5001
1 720.032 25.3384 29.3347
1 128.012 9.09527 29.9899
1 356.886 11.9718 5.00647
1 166.035 28.2124 38.3025
1 824.501 17.9642 1.2789
1 162.479 40.4927 33.3229
1 89.1857 41.2067 44.7827
1 302.222 49.0227 4.38929
1 319.585 9.83718 44.689
1 23.9292 7.07139 40.5629
1 656.621 32.8365 1.41218
1 267.547 41.3405 37.4834
1 111.138 41.1175 49.3224
1 91.1513 10.2893 12.4772
1 456.902 43.5901 40.7366
1 117.461 27.6924 10.4601
1 150.325 39.5883 42.3688
1 13.1548 38.68 27.2486
1 424.386 31.7666 5.14926
1 587.972 12.9074 11.3918
1 48.8071 33.8006 35.0709
1 168.31 16.3287 19.5203
1 95.9794 16.1868 43.5235
1 272.261 34.2053 1.04707
1 624.908 46.9093 36.4318
1 238.488 31.2721 31.3087
1 735.365 6.36475 29.2454
1 561.825 6.43581 20.2365
1 755.639 3.56606 43.2804
1 82.1072 46.3991 45.7687
1 340.344 0.655393 28.9448
1 79.4338 46.5229 7.82726
1 24.1955 6.03174 21.2416
1 590.869 42.0086 47.2506
1 192.151 48.1337 23.7014
1 420.897 12.7419 48.3721
1 195.141 9.51301 42.4274
1 736.982 41.3987 25.4392
1 405.737 35.7567 4.23562
1 103.845 32.6413 7.4161
1 566.301 3.15855 31.1316
1 201.448 44.1333 48.5324
1 827.098 7.27913 12.1215
1 361.204 14.0773 41.3534
1 200.505 24.6861 14.1259
1 825.179 25.3733 22.9244
1 432.382 6.8163 1.18376
1 783.634 41.217 43.2435
1 388.652 7.64349 11.3604
1 14.6535 26.2929 1.04663
1 684.612 16.8183 46.5733
1 682.86 38.0353 18.6223
1 509.044 9.24757 22.2924
1 186.168 18.9493 5.0193
1 788.563 28.6039 22.502
1 644.091 40.6655 4.54833
1 822.915 22.0564 20.7817
1 731.845 20.7264 41.8593
1 109.041 35.5374 15.8529
1 657.223 12.8588 8.62547
1 485.093 15.7741 2.79453
1 203.554 10.3269 42.1907
1 755.334 28.4999 44.1229
1 810.302 27.8149 14.6688
1 717.704 12.0988 49.9712
1 517.209 30.1063 17.7941
1 391.383 34.7142 24.2875
1 30.6801 6.4092 1.34703
1 124.576 7.99034 48.524
1 289.272 17.6211 26.2136
1 14.6958 32.648 23.7537
1 758.823 12.1717 9.6615
1 525.476 3.17524 43.2426
1 756.452 46.9894 13.9003
1 342.661 17.0978 2.46483
1 652.375 16.7016 5.37772
1 180.778 27.2435 49.0381
1 65.2925 5.69872 32.7492
1 90.5278 7.67975 37.2258
1 270.409 38.5568 38.9562
1 26.9798 21.2875 47.5771
1 413.48 45.9575 11.176
1 592.347 42.5821 19.1905
1 559.04 46.2375 14.2489
1 516.72 26.798 34.3447
1 118.643 25.6823 49.5815
1 548.822 48.8124 9.63482
1 752.579 10.1757 3.44568
1 556.108 18.1977 42.5235
1 91.6632 19.7716 10.3965
1 729.805 39.9871 17.5638
1 374.439 37.2189 8.37137
1 459.818 24.1651 8.89531
1 270.152 41.4011 41.5058
1 796.804 15.3886 12.4686
1 820.857 20.9996 38.1087
1 167.794 36.769 5.60094
1 667.408 10.7579 21.1092
1 677.328 41.4801 46.9342
1 684.879 41.629 48.3264
1 494.656 23.9511 46.3162
1 420.875 45.7637 29.5753
1 46.9955 14.1819 23.1977
1 820.061 32.1669 35.089
1 306.565 0.796758 3.46387
1 411.364 23.4564 33.9099
1 187.397 46.5574 7.09545
1 97.1579 8.08794 41.0196
1 306.686 5.58745 17.888
1 405.856 11.9826 11.5071
1 338.121 17.1091 21.7335
1 799.569 49.1304 27.9622
1 80.9 32.0234 23.56
1 332.425 0.260934 2.32888
1 772.185 29.8458 34.7175
1 589.973 11.2874 22.7882
1 318.156 -0.206734 7.30046
1 8.83596 25.094 21.379
1 827.32 42.8854 37.7536
1 342.376 23.6538 31.2961
1 763.553 12.8583 28.8087
1 299.902 9.53839 8.22907
1 290.146 29.7348 15.6028
1 628.335 2.87863 48.6051
1 708.343 4.0127 41.9519
1 802.778 45.2926 22.2746
1 502.841 17.1075 7.2002
1 716.482 46.0262 22.7674
1 760.015 10.3292 26.2691
1 674.048 31.7385 11.447
1 710.738 20.1051 34.7856
1 428.307 14.3583 47.1572
1 180.321 27.0653 45.2699
1 154.527 34.2091 41.9875
1 156.904 19.135 33.5299
1 182.209 23.0496 1.6796
1 209.704 37.8292 36.8012
1 32.7421 5.19452 24.1242
1 236.337 27.8224 37.9729
1 380.494 32.9658 45.9201
1 801.432 43.4872 33.1064
1 661.528 49.2685 40.1576
1 819.975 37.9731 -0.0472992
1 816.13 28.5236 31.2698
1 8.96947 43.9499 27.4048
1 151.63 4.91167 25.6597
1 10.7212 11.892 0.871324
1 536.939 2.66031 14.4257
1 47.7881 37.3208 45.9233
1 13.0341 30.9562 24.0176
1 320.061 11.8605 11.3841
1 86.9366 1.63226 37.2897
1 805.104 0.949377 1.88502
1 330.701 39.6072 34.9325
1 494.542 33.8871 8.40223
1 231.605 2.04881 7.76783
1 79.1916 9.26527 47.5403
1 692.033 21.5559 3.19727
1 792.503 2.32223 0.856677
1 90.7783 16.3922 19.1377
1 695.775 30.8196 18.2485
1 322.664 19.6791 2.57685
1 644.796 47.3422 47.1218
1 79.7857 48.9994 23.9161
1 774.971 30.1829 31.8868
1 344.769 11.3078 41.4783
1 143.372 46.4266 31.3757
1 764.92 3.45015 25.2254
1 223.463 45.0021 44.1844
1 562.996 45.559 26.7247
1 461.439 33.6213 1.16102
1 174.289 43.3313 13.1142
1 4.30141 38.9477 45.706
1 398.703 23.7961 9.1044
1 642.258 32.5101 49.8412
1 562.644 29.0683 49.2994
1 787.563 8.23451 27.5397
1 610.688 42.6059 6.51761
1 291.317 44.1392 22.1101
1 128.104 32.9309 0.0225231
1 268.038 14.4295 6.23504
1 633.368 9.25189 1.36735
1 476.852 17.0536 8.11229
1 553.788 41.427 19.5975
1 14.6968 34.7841 10.7511
1 152.683 2.77874 9.77229
1 315.226 25.3252 4.33664
1 134.93 4.85936 38.0516
1 493.58 44.9115 21.241
1 666.465 38.8876 30.8726
1 749.307 32.4494 0.182704
1 437.375 39.7323 37.2877
1 787.993 25.8905 25.1857
1 470.681 16.1846 25.1048
1 630.892 36.9682 41.1045
1 491.508 44.511 18.1512
1 381.404 18.6003 13.8687
1 297.086 17.8672 12.1678
1 489.682 49.5517 25.6552
1 787.93 32.9307 40.5014
1 557.156 28.8501 14.0071
1 780.771 13.0707 14.3178
1 770.888 -0.0251037 33.4572
1 176.093 43.2471 30.7644
1 508.621 41.8307 35.7106
1 25.2503 26.6216 29.5168
1 550.338 22.3339 14.4048
1 579.712 31.4883 11.6472
1 712.711 0.390408 15.1186
1 434.143 44.2663 39.7018
1 450.339 30.0758 8.32615
1 484.854 25.3911 47.4334
1 691.204 14.7101 8.77394
1 671.473 25.4923 40.5357
1 292.693 5.08217 25.1201
1 356.853 20.5624 39.4001
1 761.114 12.4596 34.2191
1 746.722 23.9966 34.1566
1 578.206 8.98849 26.148
1 378.878 43.2558 2.17381
1 578.88 41.8205 25.4968
1 593.173 16.4901 30.7593
1 225.254 46.3494 38.1713
1 773.979 38.7462 6.75811
1 244.054 36.0078 26.8682
1 751.097 41.5884 9.37533
1 290.552 18.046 1.68922
1 303.98 18.0079 40.3108
1 237.85 30.103 10.427
1 81.3756 16.3968 10.1525
1 8.7207 25.098 40.103
1 96.5726 36.1918 2.79663
1 698.062 35.163 31.6153
1 39.2802 18.3592 49.9352
1 299.462 7.05212 25.888
1 562.064 37.3825 15.2248
1 673.304 7.35784 12.9258
1 283.755 24.7427 31.9482
1 229.894 42.92 45.7565
1 270.963 5.5157 14.1098
1 260.241 47.4529 18.9313
1 330.695 24.5055 47.2485
1 438.53 49.4294 10.0381
1 14.3563 14.0044 12.8738
1 444.332 31.5439 15.4882
1 637.524 3.97135 40.1088
1 619.427 30.3257 12.7079
1 768.582 28.2657 43.2726
1 473.768 19.5228 39.8752
1 604.218 14.63 24.7791
1 684.706 13.5158 18.4299
1 191.362 7.04503 25.0605
1 551.133 49.3257 28.8433
1 145.535 43.7331 12.3466
1 458.755 15.1807 0.51248
1 456.326 44.9341 47.9855
1 380.132 46.3644 20.6521
1 333.979 30.3953 8.75438
1 426.063 27.3486 33.8192
1 70.85 29.4298 50.0103
1 74.5814 27.8229 30.3587
1 242.441 25.8682 29.7103
1 449.483 32.5003 28.0067
1 140.023 40.7627 35.7218
1 652.916 48.7087 3.85327
1 431.917 15.3636 41.2087
1 556.144 15.3227 49.422
1 714.287 45.8579 44.8499
1 375.023 40.807 49.1603
1 367.342 -0.191473 42.2926
1 433.249 41.1357 31.274
1 191.236 2.27549 9.51822
1 798.041 24.9181 40.7648
1 761.823 38.1973 1.96127
1 483.505 10.9072 38.7562
1 91.8357 45.0238 3.59009
1 473.52 33.5781 6.33298
1 606.177 31.8241 25.0756
1 62.4062 49.5342 45.8128
1 112.261 5.57065 28.0662
1 674.695 40.9447 17.6868
1 678.89 4.372 26.0508
1 615.529 3.5314 30.9985
1 413.703 49.3392 24.8212
1 486.922 46.714 38.6928
1 69.486 23.1497 11.9174
1 296.113 49.8494 32.8989
1 265.509 25.9475 41.2874
1 667.357 42.2751 36.9274
1 70.9594 30.7506 17.2714
1 182.621 7.22164 7.98852
1 597.159 45.5653 30.6231
1 238.723 30.2513 8.24184
1 760.212 24.4879 26.1316
1 554.582 22.2313 3.10634
1 405.64 44.8329 14.366
1 393.039 25.3303 35.7736
1 346.888 19.1986 46.6762
1 272.178 27.2538 12.5789
1 363.692 14.2498 19.7056
1 137.366 41.3411 29.1784
1 159.333 36.0367 35.2432
1 503.496 3.80272 11.3821
1 562.303 24.9066 24.2412
1 265.193 12.8068 23.3633
1 51.2762 47.049 14.4595
1 0.925235 14.0308 40.5981
1 681.66 34.6763 9.13388
1 566.635 6.17988 16.4701
1 220.701 2.02627 38.2984
1 454.188 42.9072 9.23991
1 77.878 30.2625 25.353
1 340.878 12.591 29.5162
1 19.8792 48.3333 36.165
1 374.785 29.3325 35.4776
1 806.741 43.9342 37.8185
1 787.752 28.253 43.9903
1 688.036 37.9867 4.63492
1 579.417 41.7005 38.128
1 657.762 35.3736 24.4464
1 271.937 9.37343 47.6095
1 12.2381 35.0314 1.60632
1 602.679 1.49068 49.0545
1 68.0464 21.5525 28.6363
1 19.7813 8.87981 28.9104
1 293.139 31.2018 43.7232
1 316.228 5.76752 30.4384
1 196.342 18.7824 36.5023
1 239.242 16.8001 38.5846
1 718.403 43.0128 21.8372
1 322.579 23.6384 22.368
1 36.0545 22.3314 12.4698
1 128.658 21.4921 25.3984
1 565.224 19.1356 19.6327
1 169.166 32.7229 24.1081
1 405.274 12.727 33.7475
1 823.668 29.4519 13.9786
1 771.767 47.3549 27.7843
1 109.426 14.1188 49.8962
1 500.088 16.5096 33.9117
1 55.1664 1.55145 43.6761
1 679.353 27.9133 4.30904
1 409.944 35.2778 18.32
1 653.033 6.43277 17.3799
1 251.057 27.8127 23.0129