133083
Atoms. Timestep: 6001492
1 276.189 37.2162 5.86645
1 26.4028 26.3305 10.9788
1 8.80548 25.4664 0.0931498
1 332.013 13.3707 19.2405
1 86.1292 44.1755 25.1266
1 238.982 12.7603 0.863894
1 203.616 33.019 9.85458
1 171.547 30.2683 28.3173
1 761.809 24.8191 21.8788
1 40.5704 36.2565 38.9288
1 197.112 27.687 37.1275
1 1041.02 44.9319 36.6564
1 646.894 31.7786 19.0346
1 738.911 14.1351 40.3095
1 1060.73 12.244 25.2255
1 678.684 45.1602 34.9724
1 257.764 39.6517 37.1751
1 205.307 48.4051 1.37943
1 910.32 49.8287 19.7764
1 422.636 42.8725 13.3993
1 426.651 48.1814 29.6114
1 597.257 6.12149 12.3664
1 759.188 34.6758 35.7638
1 900.059 42.4072 50.0881
1 133.666 22.9486 48.1318
1 87.8028 26.9568 6.65855
1 888.347 49.2913 15.0864
1 232.498 43.5343 21.5258
1 811.668 14.323 21.268
1 367.67 11.5435 46.2878
1 29.2057 3.35329 7.63561
1 427.086 39.191 24.3939
1 213.012 13.8901 35.6232
1 484.135 13.7155 44.5417
1 405.287 31.9123 37.071
1 625.107 35.2786 7.85524
1 948.51 24.8951 31.6202
1 517.523 7.03683 36.6241
1 378.597 5.3644 30.8867
1 445.632 33.4343 14.2818
1 916.238 18.3416 24.4576
1 377.626 13.2898 48.1094
1 892.88 34.5193 12.2508
1 599.435 8.03307 8.66651
1 21.5977 23.4478 8.7851
1 297.002 22.1307 11.3645
1 166.471 19.6267 31.0261
1 226.284 48.9732 10.8583
1 116.972 45.1446 7.80402
1 709.643 0.286455 38.1351
1 927.001 17.6371 30.185
1 85.7923 47.0022 35.0241
1 138.54 8.69104 21.9843
1 0.501604 48.0226 41.6131
1 251.955 23.1631 6.68682
1 51.0144 34.0391 10.7918
1 279.915 9.98458 7.42333
1 1073.08 48.5254 16.3845
1 239.43 27.9263 50.1501
1 416.053 4.18973 28.804
1 384.767 29.6122 42.638
1 846.472 44.3419 34.2507
1 126.918 30.2209 29.603
1 668.17 26.4116 16.7982
1 47.3795 38.3327 40.4408
1 271.462 47.6005 19.6457
1 564.166 46.4454 34.2802
1 580.499 16.4016 17.9397
1 426.875 33.98 7.55128
1 295.794 0.801459 23.1078
1 269.897 10.0383 11.5763
1 155.8 17.0286 33.5102
1 1003.85 37.3978 41.3133
1 302.808 33.0274 37.1883
1 965.007 21.4693 39.8654
1 15.6526 11.2699 7.27714
1 577.967 20.1113 31.637
1 755.404 18.6955 25.7897
1 452.055 39.0758 15.3753
1 740.794 4.95831 22.7301
1 311.475 42.5419 11.4442
1 298.409 1.81172 20.3573
1 935.945 28.4912 24.5146
1 115.183 42.2642 30.0651
1 203.23 4.75003 31.2544
1 962.684 8.44593 35.9019
1 863.232 29.6301 44.5906
1 1079.78 15.7864 8.76915
1 424.233 42.6138 11.6126
1 995.936 3.10824 25.0753
1 972.159 27.64 7.37183
1 411.519 36.7806 45.9788
1 1012.37 31.1421 31.0037
1 274.971 16.3875 49.1681
1 979.969 1.56924 16.8767
1 442.143 35.1853 22.8087
1 611.6 2.02948 34.9027
1 755.086 45.0876 12.9842
1 591.748 10.0276 14.133
1 176.718 16.6749 28.9502
1 218.974 34.4233 37.0636
1 438.658 3.49628 25.5569
1 740.931 40.7724 46.0996
1 829.315 16.6801 15.5238
1 419.29 5.92827 14.6558
1 263.555 30.7157 33.3083
1 798.144 49.2546 5.17301
1 79.3465 48.0632 35.24
1 673.942 10.2504 2.60171
1 83.1877 25.3034 40.3617
1 370.459 5.16981 2.54839
1 40.6766 43.7491 20.5824
1 672.304 30.7662 41.316
1 731.446 47.2428 25.5756
1 479.71 13.9798 26.9402
1 1005.4 14.244 41.3099
1 713.49 6.61219 8.4347
1 682.786 26.9624 10.8467
1 883.181 4.76629 8.37697
1 132.142 41.4036 12.911
1 188.449 31.9345 36.3735
1 116.225 37.9728 48.6353
1 997.152 0.776474 7.15418
1 116.458 36.5964 20.816
1 604.209 18.4805 28.995
1 0.530059 8.2998 10.4174
1 267.773 43.8784 12.5712
1 406.859 25.2796 21.2939
1 652.307 15.6287 22.5878
1 458.554 37.3918 8.60865
1 918.254 41.4445 3.17277
1 458.578 9.0032 14.5714
1 897.199 33.246 21.3524
1 717.483 5.83465 29.7404
1 129.341 13.3592 31.3644
1 753.178 15.5649 24.1003
1 440.683 3.47103 40.5276
1 380.809 44.6702 41.7734
1 893.814 7.49048 31.6652
1 169.287 45.5344 48.9591
1 56.6302 34.1234 10.5176
1 294.95 14.3401 1.34341
1 86.4637 18.3324 2.96649
1 212.099 12.8989 4.05861
1 368.221 9.62862 24.9076
1 969.181 48.7068 4.44519
1 126.823 17.3067 6.16726
1 950.519 1.48969 13.0301
1 92.5446 9.94783 18.2982
1 583.732 14.631 31.585
1 1034.01 18.3848 3.04004
1 690.426 33.1338 2.45669
1 451.958 29.5067 17.0957
1 687.528 34.9401 32.9159
1 762.012 14.0042 7.14385
1 858.428 21.6329 23.7145
1 376.665 34.5071 28.8032
1 97.1448 2.77911 19.8527
1 211.039 21.5127 0.684074
1 934.707 44.8822 25.5711
1 679.521 41.5312 36.9554
1 829.962 32.9949 34.153
1 140.807 44.2739 11.0474
1 74.8255 -0.192772 12.393
1 9.39216 35.7443 14.2494
1 657.331 48.8728 31.5979
1 447.842 18.6172 27.1903
1 945.164 10.7933 45.5651
1 543.091 9.00067 26.8929
1 972.946 18.3066 11.5947
1 198.901 15.9942 31.0225
1 687.775 33.2118 47.6219
1 282.286 27.6915 24.3706
1 540.647 25.7803 21.6084
1 25.1561 39.3318 19.5242
1 543.293 15.7998 12.6423
1 297.965 48.9244 21.2449
1 571.715 2.8847 34.6258
1 525.003 46.109 21.7064
1 1048.26 22.1779 1.67344
1 1033.93 44.1819 34.855
1 174.55 21.0355 28.8859
1 256.608 21.5125 33.0146
1 109.067 22.2698 47.9135
1 173.584 17.4915 6.36062
1 606.645 12.5979 33.5869
1 745.093 37.5174 36.4179
1 -4.50924 24.3729 30.9653
1 415.317 16.555 33.6219
1 281.797 22.9522 34.0938
1 1083.14 40.3961 20.9886
1 710.63 44.8021 18.0617
1 656.364 12.3687 9.06164
1 1080.01 12.0658 45.961
1 456.577 48.9287 40.8339
1 730.368 26.8212 0.324047
1 906.38 44.8119 27.1875
1 478.419 16.6822 14.0827
1 1072.99 31.1354 40.7502
1 293.082 31.4187 34.0668
1 792.577 34.7379 4.18381
1 20.693 16.6336 23.6468
1 980.207 5.47487 14.9246
1 1032.23 46.1415 49.8875
1 111.245 30.1434 4.31138
1 248.278 44.9291 36.8988
1 570.024 6.80463 29.1888
1 1024.09 50.1468 14.4425
1 549.324 49.7203 9.84674
1 740.421 12.1205 24.3757
1 824.381 10.6467 43.4127
1 808.386 2.9393 46.7282
1 558.49 34.923 39.2663
1 729.116 50.1695 19.2147
1 771.568 11.0395 46.0081
1 280.108 45.3271 3.38333
1 523.133 48.3726 24.4653
1 17.3323 12.8643 11.711
1 691.505 8.87613 11.8933
1 631.633 12.2663 5.83011
1 279.17 24.6008 41.9221
1 523.002 12.7574 47.4546
1 280.811 17.2905 44.3586
1 564.98 30.5512 32.4461
1 285.312 24.7691 15.1605
1 105.073 6.00629 46.9212
1 413.432 22.1864 37.3691
1 554.945 9.50365 9.48874
1 886.948 37.3863 12.6762
1 317.099 19.8482 40.969
1 690.073 6.69707 30.2985
1 24.9274 33.8254 35.9108
1 506.1 42.8626 43.7112
1 577.046 20.1272 39.4511
1 232.635 26.1189 18.4108
1 947.999 7.5849 6.24954
1 975.973 29.8622 26.5474
1 1007.89 37.2685 6.50661
1 640.5 33.8253 22.5144
1 311.704 41.4237 50.05
1 1045.22 15.9782 28.1271
1 309.948 41.397 31.4245
1 21.5464 15.9461 21.4874
1 277.416 26.5538 8.56808
1 1080.34 22.2388 27.8363
1 828.16 22.5091 1.47906
1 635.442 14.3856 39.2412
1 540.248 35.9728 29.2828
1 536.967 26.8012 35.7482
1 696.222 5.53813 31.4237
1 625.463 32.6431 15.9175
1 1041.61 34.9005 28.477
1 180.587 6.50666 22.2923
1 1003.46 20.9052 22.6504
1 1069.84 41.6365 25.1199
1 826.514 15.4023 10.6675
1 603.188 8.13394 9.24825
1 447.147 33.6448 16.3267
1 573.338 0.925266 22.2352
1 766.617 5.67476 14.1203
1 596.801 4.4176 8.28422
1 540.639 1.15943 17.4977
1 194.883 6.79198 48.5557
1 19.0777 3.22215 20.2276
1 871.384 14.5276 4.00638
1 623.743 48.6373 25.3348
1 1009.02 46.8028 34.9061
1 871.764 19.4019 42.4103
1 64.3759 0.894671 41.3009
1 488.74 48.1076 36.7182
1 259.121 28.674 25.3149
1 841.139 26.1014 27.891
1 17.3777 48.7212 32.0032
1 668.277 13.1073 40.7494
1 1025.3 30.4072 15.6049
1 599.858 39.7781 7.37699
1 179.694 18.7035 28.2332
1 825.271 14.2437 38.6487
1 379.901 19.8718 7.64116
1 545.912 40.0526 40.2963
1 779.895 34.2681 32.845
1 736.227 36.2249 45.28
1 1053.12 39.294 47.5854
1 655.775 37.9151 6.28363
1 774.474 25.9158 26.163
1 105.214 25.1993 28.8722
1 595.097 13.5038 1.99842
1 205.02 21.8012 16.9811
1 990.43 10.0602 11.4038
1 988.71 22.7108 12.1314
1 -4.07204 18.6546 8.45786
1 733.815 31.9946 25.3492
1 1055.39 42.5942 5.37034
1 62.0345 24.5789 24.8087
1 36.0932 1.08515 31.6032
1 444.108 39.2533 47.4215
1 110.161 13.7006 40.7204
1 56.1223 37.2713 17.8639
1 981.451 31.5484 3.386
1 896.852 43.0271 26.3059
1 777.573 25.1779 0.860037
1 1076.26 8.36716 49.3436
1 396.898 18.3316 9.94116
1 966.392 28.7445 19.8558
1 825.822 33.8913 6.80369
1 944.325 42.7331 29.2003
1 1077.24 35.1413 7.13003
1 47.5381 7.54709 7.86551
1 939.165 4.97778 33.5519
1 31.8023 13.092 19.1295
1 561.047 19.3392 13.9271
1 432.364 16.4034 0.547282
1 951.393 23.9181 23.9806
1 739.206 0.87152 3.03997
1 405.63 34.0168 38.2694
1 923.156 47.4865 21.9902
1 6.27775 5.25234 8.01868
1 543.299 -0.11313 21.4369
1 755.242 40.0694 30.5447
1 818.931 32.682 7.30973
1 586.907 4.45915 46.445
1 44.8973 15.0153 38.9366
1 49.0669 5.40522 32.9136
1 209.82 38.5323 22.0171
1 251.051 18.2459 37.2733
1 1024.28 4.44722 5.79723
1 243.992 11.9889 31.2128
1 560.388 24.7269 42.6789
1 414.052 36.0278 4.59733
1 31.9825 43.2888 20.0495
1 450.876 32.6323 24.0715
1 55.0129 17.7024 27.587
1 223.576 27.0426 9.06297
1 778.875 6.64947 14.1911
1 518.8 42.2809 13.3213
1 851.923 23.5777 19.9502
1 905.507 9.0588 26.9766
1 643.426 19.2376 23.5073
1 951.18 17.1286 31.4731
1 214.028 49.5353 49.5787
1 771.123 43.261 22.6884
1 713.157 31.519 16.8754
1 270.558 22.7422 31.1828
1 81.8654 37.8968 44.3035
1 825.682 26.6383 40.7317
1 796.279 41.6217 6.74435
1 579.02 13.0396 8.96112
1 149.691 39.3177 35.8909
1 168.237 7.05754 34.3981
1 610.808 37.45 49.2657
1 876.559 22.8544 1.01016
1 878.081 41.1643 36.7573
1 575.659 22.2052 43.9626
1 738.695 0.231612 17.5179
1 353.542 34.5538 35.5764
1 486.893 43.9839 3.02365
1 777.667 15.3676 27.7046
1 1006.21 7.50386 28.9918
1 299.069 32.3233 41.6912
1 654.233 48.0038 21.1404
1 1028.11 40.449 32.9253
1 1071.2 23.1919 2.14127
1 263.919 16.4013 12.1261
1 777.585 18.015 36.0932
1 455.962 46.7122 29.5873
1 822.091 41.8199 45.9722
1 393.646 41.7197 28.7181
1 987.251 26.7722 2.93002
1 883.239 7.40326 40.1363
1 777.019 42.7208 30.0431
1 1015.16 13.6704 16.535
1 444.244 12.3931 49.1549
1 372.833 10.7267 5.63238
1 290.429 46.8031 10.742
1 378.096 9.92194 23.5534
1 843.387 2.92319 46.2908
1 1015.86 48.5954 7.93682
1 940.375 12.6001 5.4832
1 140.759 37.2798 19.5089
1 959.946 22.8368 44.2378
1 899.871 16.6247 1.45257
1 209.834 0.130354 41.8977
1 433.205 40.2268 5.69793
1 322.168 39.4309 48.0492
1 624.145 13.2015 23.9811
1 793.893 3.78119 36.5633
1 998.351 33.6272 29.332
1 310.25 43.6737 18.5994
1 814.199 31.7932 0.271031
1 828.656 17.0891 37.7198
1 628.383 40.7568 37.3398
1 1027.28 48.7968 26.4777
1 331.471 44.7178 30.5706
1 898.175 5.67325 36.7205
1 1006.71 49.1669 35.9592
1 1038 48.3172 13.5379
1 974.494 23.5518 10.8893
1 724.466 16.935 23.4422
1 602.219 29.9227 17.9548
1 336.267 26.7289 0.0744558
1 457.903 31.379 43.2046
1 283.557 3.23026 24.8475
1 7.03413 23.1366 19.9715
1 295.877 34.1365 42.7022
1 623.674 29.566 35.2343
1 497.53 28.7834 2.69136
1 436.075 20.7347 39.6876
1 264.287 0.0648953 21.3028
1 923.754 40.2638 26.1736
1 203.716 24.142 2.41523
1 963.44 24.8565 40.2742
1 964.341 40.302 16.6428
1 150.46 45.179 46.1907
1 344.296 33.4275 24.6623
1 1009.73 35.0698 40.9831
1 325.732 24.6301 6.13552
1 518.462 36.1873 12.0315
1 546.01 6.94852 17.0045
1 881.882 1.03716 16.4428
1 622.522 42.434 28.5069
1 599.41 33.6087 40.2597
1 425.418 13.0112 27.3966
1 988.064 1.19493 49.1353
1 607.234 6.9171 7.70789
1 942.324 41.8867 49.7927
1 643.451 41.1384 14.6153
1 505.569 43.1913 23.0911
1 133.009 9.35093 23.3099
1 596.729 17.9141 17.5916
1 728.383 34.3905 23.9822
1 604.57 36.1534 37.7919
1 666.885 30.8535 27.5089
1 82.9106 11.8589 23.8709
1 625.998 21.954 47.9718
1 805.062 6.67177 31.7655
1 957.855 37.1234 20.8215
1 885.109 25.376 47.7234
1 274.672 6.38138 19.8548
1 664.312 34.8961 34.8623
1 880.229 42.797 11.7919
1 280.536 2.87834 22.5072
1 859.391 18.8661 32.0824
1 890.849 31.2218 9.8634
1 763.836 32.026 40.123
1 549.142 11.8015 11.0648
1 486.168 30.5325 20.7286
1 876.627 13.0391 4.20902
1 773.867 19.0322 26.7296
1 868.257 15.7296 13.8206
1 202.686 36.4129 6.10689
1 1053.53 41.7077 26.5469
1 397.585 5.29881 23.8456
1 826.466 48.7952 46.3117
1 364.085 10.1221 46.6614
1 741.953 23.9676 32.3173
1 177.906 32.3056 1.638
1 29.333 34.4368 48.0004
1 578.359 2.10372 2.3077
1 724.781 32.79 39.6782
1 580.519 0.630828 37.2684
1 880.438 32.3338 8.01421
1 77.0648 26.7699 15.8126
1 656.756 45.3552 19.3293
1 1069.32 42.0497 27.4599
1 221.175 34.1032 22.8231
1 1067.91 35.0561 50.1568
1 503.551 29.7199 14.4902
1 655.51 46.4392 9.89075
1 58.6004 22.2428 40.7386
1 509.001 24.7927 16.7458
1 857.424 40.0079 22.9925
1 701.006 0.156968 45.7455
1 99.6132 11.055 45.4478
1 1067.78 40.5745 17.8111
1 923.781 4.13857 33.4048
1 37.3076 0.216535 14.0033
1 215.502 43.4925 13.8209
1 153.735 1.79639 36.4818
1 347.09 45.4427 29.1364
1 583.13 29.7134 17.5866
1 62.2901 39.6308 15.9562
1 339.03 22.8232 24.6952
1 269.663 1.25285 40.693
1 1072.11 15.85 16.9319
1 1006.05 9.64948 13.1903
1 829.949 12.9211 38.2991
1 596.673 31.9303 22.0689
1 572.906 15.9427 15.6809
1 699.402 38.7973 36.9976
1 1031.32 21.4223 14.6657
1 693.393 43.5791 34.9629
1 541.077 8.83944 39.7557
1 462.464 21.5582 13.859
1 78.3611 10.9769 0.940456
1 210.075 1.07724 20.5639
1 212.931 35.7761 2.73543
1 1039.5 16.8372 23.7014
1 761.484 48.0117 19.7669
1 133.206 47.1605 36.9786
1 645.501 29.4358 44.7195
1 318.023 6.85298 46.6193
1 991.564 48.3706 33.1369
1 895.225 13.9713 35.6351
1 703.676 4.63074 29.6759
1 377.223 33.8339 7.23508
1 755.204 19.1467 6.83277
1 354.208 0.527204 39.6425
1 359.609 40.4491 39.5646
1 239.716 41.3352 1.90598
1 190.015 20.1055 10.5944
1 782.722 43.4897 40.6916
1 831.671 19.6571 15.806
1 539.356 30.4182 29.5421
1 819.167 13.0754 29.6653
1 406.728 40.0145 28.4279
1 650.719 19.9422 7.86353
1 1045.29 9.35137 10.2756
1 599.516 32.8152 19.8616
1 545.481 6.8488 47.0042
1 1017.21 26.4356 23.2748
1 200.106 6.17113 43.4337
1 904.204 8.85329 3.28366
1 196.89 20.2607 42.8728
1 773.526 37.0641 15.4029
1 132.461 5.49917 39.2425
1 285.531 22.18 6.79579
1 402.04 25.9731 43.1195
1 463.977 3.32748 14.7699
1 825.94 22.5417 9.0671
1 281.551 3.72307 20.5073
1 954.789 49.7546 11.2041
1 448.364 33.4932 11.399
1 36.992 38.5283 2.77794
1 205.675 17.9042 43.4544
1 393.554 47.8648 10.7152
1 82.4106 7.75443 16.0874
1 981.367 19.9747 7.52631
1 652.456 16.9723 16.789
1 559.875 40.1658 28.8294
1 695.363 22.2858 42.4825
1 1023.17 37.5586 35.2697
1 588.535 20.3589 9.70882
1 935.129 29.2928 45.2103
1 520.27 40.6516 12.1296
1 857.822 3.25602 25.2741
1 365.644 38.7713 46.5692
1 890.333 38.595 1.82612
1 193.271 13.5451 20.0712
1 171.192 24.1499 26.8718
1 61.709 36.3619 31.4852
1 884.096 30.26 25.7208
1 572.803 18.3626 29.902
1 258.668 31.8273 46.8878
1 177.222 36.9873 20.9283
1 681.722 4.57022 5.37431
1 197.322 33.0846 24.539
1 200.881 4.72743 26.6885
1 657.588 32.1674 26.9743
1 280.217 30.1465 43.3843
1 522.565 30.0292 26.2689
1 208.039 38.9532 16.7313
1 747.306 37.1834 24.3561
1 160.886 13.0858 44.7225
1 1016.25 44.0974 15.1172
1 147.517 11.8377 31.1878
1 1012.27 28.909 12.6638
1 359.209 16.74 13.0159
1 778.127 14.7463 42.3312
1 618.65 5.79929 50.063
1 613.792 0.971219 28.1258
1 656.989 6.21422 46.4614
1 774.201 10.6013 9.6198
1 687.96 7.38541 36.3437
1 707.33 13.0102 19.9677
1 504.723 45.749 41.416
1 37.6368 49.117 34.0331
1 751.098 17.8202 11.0946
1 1005.92 9.37441 21.6625
1 272.596 39.341 44.1387
1 110.71 27.418 26.1295
1 78.8365 11.5724 31.9918
1 52.0083 43.1256 45.2613
1 879.305 32.6114 22.4427
1 1022.56 33.7661 29.6243
1 391.665 27.8544 23.0465
1 495.077 39.1028 7.72823
1 842.67 6.87467 39.1211
1 340.738 19.7205 39.8672
1 434.61 31.8222 21.562
1 753.075 44.9357 11.8043
1 219.916 6.40469 11.7933
1 281.018 19.4989 45.1725
1 265.442 32.7086 5.06071
1 273.756 39.4786 18.5563
1 448.792 9.30042 23.5641
1 731.086 36.8572 21.5663
1 904.518 26.2587 6.39905
1 839.776 36.2172 7.42598
1 20.9027 27.5203 8.46665
1 210.551 49.0789 12.2724
1 605.982 14.732 17.332
1 1060.6 36.7898 46.3839
1 546.253 1.19542 30.629
1 829.626 24.416 22.1928
1 164.083 39.1696 25.4559
1 571.018 36.1127 18.8425
1 718.219 15.7869 36.6497
1 873.456 26.9511 20.2877
1 822.634 31.9236 25.9045
1 112.53 12.298 12.0198
1 120.449 11.7679 42.5257
1 385.212 25.4219 17.3388
1 211.106 6.07713 13.8629
1 910.613 5.16305 24.0474
1 696.997 28.9451 22.2147
1 844.398 17.5327 15.2068
1 1003.26 49.8341 24.773
1 326.282 12.3433 49.0789
1 109.238 32.8911 13.3506
1 590.977 32.8044 2.21236
1 1026.78 30.1919 6.36776
1 858.253 24.2869 38.6683
1 248.109 15.4524 31.2672
1 520.759 30.298 11.081
1 179.908 0.699329 3.31067
1 525.611 40.7789 9.98396
1 184.54 31.5333 19.2432
1 248.603 2.98187 1.65004
1 506.878 25.424 46.8106
1 121.904 28.9729 18.9716
1 435.37 11.4303 9.13821
1 827.899 18.2751 23.2646
1 665.668 40.2951 31.3779
1 25.3117 27.6334 33.7507
1 897.808 11.169 2.07241
1 1082.81 26.0254 5.06565
1 534.329 38.067 32.2547
1 494.362 19.4182 25.9403
1 775.909 21.9338 2.22018
1 196.401 22.6435 14.4158
1 1007.32 34.3253 29.4794
1 469.978 36.3841 35.0821
1 932.426 48.521 11.6182
1 563.728 11.6097 21.6982
1 1033.3 35.0972 11.0803
1 314.932 16.6933 16.0992
1 652.648 42.69 5.45659
1 863.427 46.1685 27.2205
1 540.023 3.17426 14.03
1 643.715 18.4139 17.803
1 685.829 38.7168 20.0862
1 402.414 7.47565 9.40883
1 35.5893 16.6483 17.0868
1 499.697 15.4758 22.2178
1 327.986 11.8247 32.9101
1 899.683 33.3428 33.4424
1 684.361 17.5185 22.6304
1 777.143 1.75931 33.7073
1 335.996 13.0891 44.5083
1 11.1545 43.8836 41.5405
1 846.959 29.1459 5.35708
1 236.2 31.4555 23.9974
1 181.095 31.3562 -0.224462
1 69.0409 42.5714 45.3812
1 859.887 21.9234 14.2416
1 449.091 18.1602 21.7361
1 445.946 30.1015 12.1873
1 159.161 1.69797 48.0399
1 411.006 2.04946 38.7142
1 984.101 36.9877 48.1126
1 642.223 37.6368 8.28758
1 1080.19 32.1937 19.4479
1 1016.25 14.9897 25.7936
1 341.29 37.8351 35.0754
1 471.996 26.3667 11.5344
1 380.633 8.16986 8.88548
1 598.462 38.6531 42.9852
1 450.688 9.62466 33.3303
1 353.534 34.3394 48.3601
1 349.468 31.8132 38.88
1 566.336 12.5604 44.3561
1 278.058 21.1397 12.9321
1 473.627 45.6379 20.5234
1 578.808 45.6202 23.707
1 307.77 45.8627 44.1183
1 915.628 8.53167 26.6686
1 796.788 22.7732 15.9729
1 846.393 27.7732 1.87128
1 721.837 28.0092 30.0814
1 739.884 29.2357 45.9756
1 151.553 42.2997 44.2766
1 183.573 42.3837 29.9064
1 415.632 21.4362 26.0274
1 48.7277 42.0316 17.5544
1 1048.8 48.9798 41.597
1 920.261 44.1468 5.26272
1 1043.45 10.0434 19.573
1 230.146 49.401 44.0378
1 807 18.632 26.7594
1 179.952 26.9801 19.3962
1 1061.48 39.6751 10.8003
1 207.994 19.6032 9.92073
1 52.3604 49.3431 31.248
1 304.327 20.5538 21.0425
1 741.43 15.4029 22.3678
1 24.1876 18.5435 0.031279
1 1011.49 6.31109 46.0793
1 435.363 4.88264 45.9026
1 232.704 35.9932 36.8163
1 580.274 40.7137 42.2651
1 513.987 13.1055 32.8636
1 253.507 32.9166 13.7903
1 508.176 17.9861 17.3551
1 1045.54 43.8434 24.7346
1 610.679 27.3496 48.4188
1 182.358 35.8602 22.5824
1 345.046 9.39044 19.9072
1 867.535 1.01827 30.3456
1 555.94 15.4209 23.4595
1 982.836 4.23586 0.372061
1 842.539 3.915 1.63482
1 712.368 43.3455 17.5254
1 120.603 42.8738 28.8637
1 822.522 42.6201 15.3619
1 959.19 18.861 38.1078
1 107.938 40.1391 0.772535
1 727.257 24.9401 24.2214
1 649.4 47.3046 9.20756
1 754.275 42.8081 20.2716
1 511.307 38.6044 41.6865
1 748.866 4.53587 22.5421
1 1004.02 30.671 15.7216
1 838.861 20.6458 2.97756
1 106.828 36.123 34.3528
1 885.717 37.1516 8.44822
1 594.441 25.8298 40.7558
1 68.4084 38.1755 16.9914
1 367.434 11.4287 10.7233
1 654.393 4.19871 17.9551
1 266.645 35.1477 24.572
1 829.021 7.58172 16.4727
1 1000.01 7.5378 16.4301
1 707.38 38.6993 11.1201
1 302.3 50.0503 9.18596
1 249.637 35.1742 0.134628
1 124.225 39.4203 34.9745
1 941.693 35.2036 25.1662
1 982.092 11.1878 39.1216
1 705.273 33.8346 48.7832
1 364.036 40.8656 24.2796
1 687.139 34.9534 40.5415
1 713.368 39.7695 34.9738
1 73.6535 15.6575 19.5975
1 676.726 14.0977 36.6216
1 854.638 21.9188 48.4601
1 53.924 0.765762 28.053
1 865.336 47.7254 24.3264
1 181.099 13.5286 47.8856
1 716.063 23.7567 4.5562
1 992.898 22.4295 28.5453
1 640.759 44.705 0.763907
1 229.336 2.23499 32.8644
1 217.826 24.1075 4.5935
1 327.015 2.54903 14.2043
1 177.141 13.3894 48.5679
1 186.168 1.14643 0.553678
1 893.84 45.5944 11.6066
1 860.211 35.2652 6.07745
1 436 18.1749 25.6429
1 612.756 41.6563 24.4495
1 895.824 25.5064 2.7721
1 174.84 14.6553 15.7432
1 289.282 16.8606 49.035
1 764.212 9.33394 10.2028
1 567.439 11.2785 21.7203
1 787.425 36.8222 43.8623
1 201.589 49.3174 12.3906
1 229.445 3.71276 42.1419
1 807.773 36.6164 23.651
1 503.91 11.013 14.4228
1 518.854 36.2528 34.9758
1 543.615 14.2971 16.4596
1 472.371 44.6529 42.9773
1 204.876 22.8755 7.52696
1 853.338 38.9761 13.2476
1 133.075 45.4448 5.77046
1 148.731 44.1605 24.0901
1 817.334 15.6388 28.2917
1 148.653 14.086 50.0039
1 1018.8 15.8318 35.1587
1 906.46 30.5585 10.1994
1 261.616 2.58974 24.1427
1 294.986 1.8709 4.32899
1 356.37 10.4659 38.0683
1 712.594 8.08033 33.2691
1 1031.92 0.776951 16.3807
1 663.245 19.5979 13.2919
1 310.447 -0.000405618 15.5778
1 613.348 44.2303 29.59
1 364.158 44.5964 3.86082
1 487.317 19.9348 1.53225
1 537.506 12.6329 49.4902
1 679.445 18.4963 20.3785
1 772.843 40.802 29.8977
1 538.989 8.19933 45.0032
1 974.816 23.3998 23.3859
1 741.432 13.5695 14.1048
1 606.708 19.2174 22.1786
1 821.979 2.21851 36.642
1 889.927 8.12466 15.8569
1 205.884 38.2933 3.26008
1 674.739 20.8994 24.2548
1 956.954 39.3457 31.9729
1 276.019 20.0158 12.4379
1 977.9 38.3496 47.6113
1 632.726 41.1747 37.6818
1 852.545 31.959 47.6729
1 490.347 31.7639 35.786
1 900.783 43.859 3.08728
1 205.988 19.6226 36.7396
1 470.047 45.7131 37.7913
1 272.472 49.1059 44.9589
1 1078.33 49.6016 2.59058
1 224.331 14.1811 22.5282
1 56.1028 26.2198 0.173262
1 462.186 2.68977 47.3989
1 407.038 11.7879 40.5878
1 0.0388307 44.8773 12.2067
1 832.103 3.62408 21.4123
1 360.459 1.00448 36.7041
1 138.553 13.4718 17.6976
1 141.71 47.469 16.6018
1 650.075 37.9137 12.5636
1 185.465 33.1927 39.6955
1 148.294 8.18562 8.27114
1 1069.51 4.46322 15.6491
1 587.108 40.2665 31.0369
1 728.451 31.9171 30.1411
1 61.1467 14.6801 35.3584
1 217.522 5.58818 49.075
1 90.9414 28.5248 36.415
1 333.128 26.3222 31.4712
1 778.846 20.2858 8.63795
1 265.251 34.0959 39.6673
1 975.53 30.483 8.20687
1 707.856 21.1702 38.0833
1 945.195 40.471 5.05347
1 106.118 8.89137 32.3003
1 437.382 38.817 11.3796
1 118.566 1.1516 40.5019
1 65.6683 21.6846 40.4314
1 765.443 47.7834 36.3427
1 238.735 18.5678 27.2829
1 484.727 4.62121 35.7852
1 259.929 9.97646 13.8638
1 942.831 40.9838 13.5118
1 549.176 45.9626 9.79966
1 80.8336 35.5767 4.6109
1 697.964 18.1339 26.1804
1 276.97 4.02767 49.0661
1 16.1967 38.9968 19.7094
1 529.38 15.1763 0.70631
1 265.584 33.742 12.8881
1 1084.72 3.84968 22.3216
1 573.157 17.9235 27.6145
1 1026.48 37.1044 28.758
1 460.798 4.12928 8.1698
1 38.6528 33.2219 0.42968
1 832.963 39.1865 19.3767
1 910.248 47.5829 1.23737
1 748.499 1.72465 43.9755
1 182.606 12.8482 19.6977
1 1017.28 40.7666 17.6724
1 871.618 3.59267 41.3402
1 16.737 28.2217 49.2257
1 949.613 3.17478 49.3178
1 169.631 15.6406 15.3361
1 796.075 1.00175 2.91037
1 642.001 29.5527 17.4159
1 204.488 21.3642 36.8938
1 946.843 15.448 25.1808
1 37.7781 25.5124 37.4724
1 960.718 5.1896 10.3868
1 678.902 6.01074 42.0017
1 476.169 2.80776 15.6208
1 17.0069 37.7664 -0.21646
1 155.138 47.677 49.0719
1 397.529 26.4486 39.4423
1 84.5323 38.4248 20.6159
1 1024.65 49.3178 3.46865
1 642.269 46.8497 38.3049
1 1011.43 33.4287 22.3813
1 417.213 20.9627 37.9047
1 837.188 13.1471 34.9317
1 207.924 24.7975 7.47316
1 144.405 33.9125 6.07385
1 108.541 20.6219 8.11232
1 338.656 14.6292 19.5617
1 23.565 35.3598 4.23783
1 489.053 18.4881 28.9459
1 771.025 10.2273 7.3112
1 738.199 46.1639 9.33026
1 662.344 12.0518 17.9811
1 202.989 43.6491 46.4789
1 696.238 1.52101 5.72601
1 1014.58 6.85007 32.2293
1 711.839 25.0593 34.0654
1 160.646 6.63457 44.861
1 941.619 6.78318 17.6534
1 550.386 17.7183 33.9331
1 654.581 44.1446 41.6242
1 323.892 7.68477 7.19293
1 962.491 2.28848 3.72545
1 43.3195 10.228 5.36483
1 223.543 48.3394 41.9777
1 862.007 36.7038 38.1531
1 876.011 48.3622 26.2705
1 900.1 21.6636 31.0083
1 672.468 21.3457 32.6004
1 604.607 23.7842 21.9943
1 80.0883 23.0072 25.8217
1 1038.57 10.4607 43.2772
1 474.279 26.0579 8.54872
1 591.019 9.78863 22.6325
1 255.802 23.1326 29.4949
1 159.737 3.84424 0.637724
1 374.865 30.5483 41.8594
1 577.578 46.7759 20.1764
1 507.225 21.5003 14.1864
1 1043.5 4.44658 32.5827
1 108.774 37.0962 5.7151
1 437.888 2.59389 44.0294
1 971.694 48.1741 9.44284
1 772.798 31.2184 18.3031
1 389.262 25.4593 24.4708
1 45.1078 33.0393 24.0834
1 1053.31 49.4392 35.2454
1 434.209 49.413 37.3008
1 1005.41 3.2118 43.2675
1 391.811 30.0059 12.7433
1 402.585 1.54153 14.8176
1 809.629 17.2169 9.71966
1 950.797 22.323 48.0573
1 1077.66 26.3053 15.7189
1 649.049 44.7068 17.4417
1 933.227 27.0127 7.51941
1 959.896 9.77982 2.03441
1 842.901 23.7032 1.19072
1 995.312 6.39394 48.7773
1 651.505 17.3665 30.7472
1 269.133 7.22985 13.8998
1 238.576 44.0281 17.8793
1 211.269 1.81416 30.0612
1 279.096 11.3066 30.2579
1 244.072 22.7464 11.0292
1 46.1679 40.4943 45.3735
1 268.747 38.2045 27.1593
1 529.482 16.3447 8.80314
1 1001.65 4.23404 17.4499
1 836.234 7.22324 2.71648
1 1067.26 6.67493 9.63551
1 1026.6 6.79383 12.0828
1 15.3528 40.3969 37.0256
1 156.085 4.79247 16.0085
1 114.153 47.2482 22.3255
1 678.834 16.7023 1.28842
1 138.071 38.1814 39.9603
1 38.1222 32.5526 17.9439
1 402.779 34.6591 28.182
1 88.1325 4.38352 39.4761
1 990.118 6.02578 34.9874
1 461.353 43.9363 45.7503
1 665.821 19.8133 7.30172
1 341.436 20.2284 17.607
1 126.09 5.45733 7.1014
1 871.939 48.5948 32.5958
1 961.736 5.43381 42.8193
1 116.038 5.72147 7.61799
1 947.508 30.4404 3.41042
1 446.933 9.97949 24.8922
1 864.671 36.1199 18.555
1 114.836 31.8375 10.1396
1 6.94165 41.0041 39.4928
1 533.493 42.6424 35.127
1 141.578 10.075 30.9183
1 950.486 24.2563 21.7704
1 311.752 32.4644 8.13377
1 771.596 47.4825 28.3226
1 606.474 10.0462 29.7254
1 240.201 7.8467 25.2535
1 24.5319 4.86317 1.01434
1 535.95 16.7613 26.3484
1 893.107 0.822947 37.3397
1 680.629 2.55599 30.2401
1 1005.8 45.2983 10.567
1 827.049 42.1628 31.7711
1 340.774 10.4844 5.02993
1 161.671 32.0391 40.1257
1 372.871 8.22755 21.485
1 818.103 15.7936 42.5332
1 618.624 37.5179 29.3884
1 709.61 47.7298 47.7186
1 1065.02 10.577 27.635
1 260.185 12.7841 30.7457
1 387.687 12.4392 50.1032
1 205.109 12.7266 33.4644
1 653.098 27.637 45.7848
1 883.427 27.6795 45.7688
1 940.931 6.78564 28.3356
1 564.14 10.4464 1.11036
1 1005.46 46.973 46.0445
1 587.813 21.5163 29.3901
1 816.452 20.4667 32.8746
1 631.751 37.8257 18.2531
1 541.854 16.1526 37.8615
1 381.369 12.6917 50.189
1 636.025 5.35396 16.037
1 1055.27 22.4447 4.4264
1 776.087 33.651 49.2299
1 1013.64 49.9784 42.9891
1 1022.47 25.572 8.65431
1 246.717 7.70377 24.7717
1 691.076 31.642 45.8578
1 40.4337 39.2924 29.2593
1 673.818 15.8891 25.4115
1 781.315 4.3451 40.4819
1 882.503 22.0153 4.30171
1 549.022 18.855 21.3566
1 563.088 13.5486 26.9991
1 627.933 25.0265 9.39386
1 996.476 0.1912 40.287
1 897.541 14.2025 15.4559
1 349.659 6.42231 41.0055
1 458.904 13.063 19.2903
1 974.503 43.4711 14.7687
1 999.364 47.6975 49.6975
1 724.679 12.6506 0.320624
1 465.732 18.7509 34.1747
1 739.169 46.9565 18.3521
1 768.289 20.3559 31.9579
1 301.17 11.9292 6.17666
1 1033.13 18.0477 37.3655
1 356.514 28.1304 16.0325
1 961.977 39.379 27.4196
1 368.13 39.7815 41.7418
1 396.574 40.0309 17.4783
1 322.717 1.90918 20.1044
1 150.116 20.2363 24.9753
1 45.2817 17.6334 13.6463
1 141.062 47.0759 18.8301
1 914.175 40.1266 37.239
1 113.135 7.09156 9.71438
1 414.145 5.69812 15.9588
1 724.491 10.8661 7.50978
1 903.465 10.6583 17.373
1 376.537 38.2218 20.246
1 241.014 26.5535 46.8962
1 331.744 16.0066 36.0502
1 322.12 5.82167 31.2158
1 413.213 33.0182 36.4492
1 591.424 49.1472 34.4151
1 51.7809 34.0923 28.6363
1 538.432 37.4543 37.465
1 852.978 45.4189 0.478663
1 784.022 6.58467 16.8699
1 973.014 17.9315 37.6415
1 643.563 11.7635 23.9233
1 801.544 1.42403 1.91574
1 898.825 32.3462 7.8433
1 268.663 18.1864 9.54335
1 641.145 41.1519 11.3626
1 143.891 4.08769 23.8944
1 617.536 31.3636 34.846
1 629.968 1.25237 20.4836
1 529.295 2.04778 32.3451
1 371.519 10.111 21.1748
1 578.126 41.6243 42.9694
1 82.5736 46.4974 18.6593
1 123.004 31.9765 1.94474
1 341.118 17.3682 20.1203
1 610.08 23.2392 29.0123
1 170.613 25.6618 7.94463
1 908.001 5.13003 39.4554
1 572.946 29.602 18.9865
1 752.615 5.2041 44.4763
1 893.08 4.12713 19.949
1 480.953 26.5015 18.2841
1 456.999 46.4947 15.4837
1 497.686 8.53652 11.4603
1 213.067 0.105983 44.7963
1 1079.41 0.937917 6.13261
1 987.002 16.3822 17.2768
1 601.739 36.8068 20.8511
1 93.4167 11.1577 33.8264
1 564.915 1.76008 38.5858
1 805.309 44.1727 42.5167
1 129.403 9.70145 11.2787
1 130.302 36.386 24.2899
1 897.394 42.0002 44.8857
1 873.76 35.1862 25.0945
1 797.665 29.0607 46.8271
1 548.854 14.8414 8.67179
1 601.505 28.0722 6.91377
1 127.678 12.8993 16.8902
1 365.232 49.6048 24.4458
1 381.148 28.5124 5.29131
1 866.186 47.9216 28.5265
1 89.2927 13.1038 11.9294
1 253.126 1.26268 34.8398
1 792.265 21.7774 36.5558
1 290.412 48.1597 16.8673
1 981.104 18.7706 50.1817
1 739.295 26.3153 30.1807
1 470.317 40.6152 30.7747
1 542.387 46.6491 14.6938
1 414.83 14.5835 45.8948
1 324.112 35.0335 38.6685
1 418.012 33.2798 35.02
1 132.076 42.3187 29.4184
1 221.96 32.4705 28.0744
1 665.787 16.1858 13.7389
1 731.968 34.7227 34.4054
1 354.404 34.3676 44.4379
1 41.084 40.3232 16.0963
1 21.8668 10.5708 49.6581
1 920.025 2.52073 24.7601
1 718.194 23.5477 0.885358
1 267.956 25.0664 10.0523
1 588 10.9922 41.795
1 158.33 9.28834 7.51043
1 441.551 38.1709 16.6421
1 38.2101 -0.208879 44.8506
1 469.765 34.6449 26.8152
1 1040.06 8.66545 34.095
1 1061.69 43.2929 36.7105
1 867.069 21.0697 0.18536
1 794.669 48.7364 16.2645
1 805.689 2.16327 23.8191
1 365.615 16.7984 41.9284
1 1083.72 28.4509 25.2274
1 793.546 4.31657 24.2019
1 108.517 18.2917 43.128
1 80.4789 45.3629 29.2481
1 379.872 0.659237 11.7381
1 457.602 28.8146 2.51962
1 291.811 22.0107 2.62292
1 322.088 31.6839 5.03065
1 910.013 13.9342 4.95364
1 433.554 30.7507 18.0903
1 41.4907 34.6211 9.77393
1 204.732 28.8264 15.8939
1 762.135 45.2064 36.571
1 268.896 45.7323 44.7008
1 533.293 43.8011 17.2338
1 1033.81 20.0394 4.72325
1 987.864 29.1442 7.97629
1 189.671 1.76309 3.65021
1 557.178 2.91955 1.7106
1 58.569 26.1884 38.6328
1 881.319 27.5048 49.3174
1 602.323 15.1417 35.2674
1 878.356 22.9751 16.4665
1 337.016 15.7938 41.6466
1 494.3 3.54612 18.2197